
     Program PWSCF v.6.1 starts on  9Feb2026 at 14:30: 2 

     This program is part of the open-source Quantum ESPRESSO suite
     for quantum simulation of materials; please cite
         "P. Giannozzi et al., J. Phys.:Condens. Matter 21 395502 (2009);
          URL http://www.quantum-espresso.org", 
     in publications or presentations arising from this work. More details at
     http://www.quantum-espresso.org/quote

     Parallel version (MPI & OpenMP), running on     192 processor cores
     Number of MPI processes:                96
     Threads/MPI process:                     2
     R & G space division:  proc/nbgrp/npool/nimage =      96
     Reading input from espresso.pwi
Warning: card &IONS ignored
Warning: card    ION_DYNAMICS     = 'BFGS' ignored
Warning: card / ignored
Warning: card &CELL ignored
Warning: card / ignored
Warning: card &FCP ignored
Warning: card / ignored
Warning: card &RISM ignored
Warning: card / ignored

     Current dimensions of program PWSCF are:
     Max number of different atomic species (ntypx) = 10
     Max number of k-points (npk) =  40000
     Max angular momentum in pseudopotentials (lmaxx) =  3

     IMPORTANT: XC functional enforced from input :
     Exchange-correlation      = VDW-DF2 ( 1  4 13  0 2 0)
     Any further DFT definition will be discarded
     Please, verify this is what you really want

               file O.pbe-n-kjpaw_psl.1.0.0.UPF: wavefunction(s)  2S 2P renormalized
               file H.pbe-kjpaw_psl.1.0.0.UPF: wavefunction(s)  1S renormalized

     Subspace diagonalization in iterative solution of the eigenvalue problem:
     one sub-group per band group will be used
     ELPA distributed-memory algorithm (size of sub-group:  6*  6 procs)

 
     Parallelization info
     --------------------
     sticks:   dense  smooth     PW     G-vecs:    dense   smooth      PW
     Min         740     296     74               148294    37508    4688
     Max         741     297     76               148300    37516    4690
     Sum       71041   28417   7129             14236565  3601159  450127
 


     bravais-lattice index     =            0
     lattice parameter (alat)  =      37.7945  a.u.
     unit-cell volume          =   53986.6738 (a.u.)^3
     number of atoms/cell      =            3
     number of atomic types    =            2
     number of electrons       =         8.00
     number of Kohn-Sham states=           40
     kinetic-energy cutoff     =      62.4738  Ry
     charge density cutoff     =     624.7385  Ry
     convergence threshold     =      7.3E-12
     mixing beta               =       0.3333
     number of iterations used =           12  plain     mixing
     Exchange-correlation      = VDW-DF2 ( 1  4 13  0 2 0)

     Effective Screening Medium Method
     =================================
     Boundary Conditions: Vacuum-Slab-Vacuum
     total charge in unit cell        =   0.0000
     grid points for fit at edges     =        4 
 

     celldm(1)=  37.794522  celldm(2)=   0.000000  celldm(3)=   0.000000
     celldm(4)=   0.000000  celldm(5)=   0.000000  celldm(6)=   0.000000

     crystal axes: (cart. coord. in units of alat)
               a(1) = (   1.000000   0.000000   0.000000 )  
               a(2) = (   0.000000   1.000000   0.000000 )  
               a(3) = (   0.000000   0.000000   1.000000 )  

     reciprocal axes: (cart. coord. in units 2 pi/alat)
               b(1) = (  1.000000  0.000000  0.000000 )  
               b(2) = (  0.000000  1.000000  0.000000 )  
               b(3) = (  0.000000  0.000000  1.000000 )  


     PseudoPot. # 1 for  O read from file:
     /work/gf93/f93007/QE/pseudo/O.pbe-n-kjpaw_psl.1.0.0.UPF
     MD5 check sum: c61d840054b6bba219e553541e327118
     Pseudo is Projector augmented-wave + core cor, Zval =  6.0
     Generated using "atomic" code by A. Dal Corso  v.6.1 svn rev. 13369
     Shape of augmentation charge: PSQ
     Using radial grid of 1095 points,  4 beta functions with: 
                l(1) =   0
                l(2) =   0
                l(3) =   1
                l(4) =   1
     Q(r) pseudized with 0 coefficients 


     PseudoPot. # 2 for  H read from file:
     /work/gf93/f93007/QE/pseudo/H.pbe-kjpaw_psl.1.0.0.UPF
     MD5 check sum: 29603ce6b94be0cf73e39cbb1f958d8e
     Pseudo is Projector augmented-wave, Zval =  1.0
     Generated using "atomic" code by A. Dal Corso  v.6.1 svn rev. 13369
     Shape of augmentation charge: PSQ
     Using radial grid of  929 points,  2 beta functions with: 
                l(1) =   0
                l(2) =   0
     Q(r) pseudized with 0 coefficients 


     vdW kernel table read from file vdW_kernel_table
     MD5 check sum: 6d69797d2e858e93e031fb7d16d30e50

     atomic species   valence    mass     pseudopotential
        O              6.00    15.99900      O( 1.00)
        H              1.00     1.00800      H( 1.00)

      2 Sym. Ops. (no inversion) found


                                    s                        frac. trans.

      isym =  1     identity                                     

 cryst.   s( 1) = (     1          0          0      )
                  (     0          1          0      )
                  (     0          0          1      )

 cart.    s( 1) = (  1.0000000  0.0000000  0.0000000 )
                  (  0.0000000  1.0000000  0.0000000 )
                  (  0.0000000  0.0000000  1.0000000 )


      isym =  2     inv. 180 deg rotation - cart. axis [1,0,0]   

 cryst.   s( 2) = (    -1          0          0      )
                  (     0          1          0      )
                  (     0          0          1      )

 cart.    s( 2) = ( -1.0000000  0.0000000  0.0000000 )
                  (  0.0000000  1.0000000  0.0000000 )
                  (  0.0000000  0.0000000  1.0000000 )


   Cartesian axes

     site n.     atom                  positions (alat units)
         1           O   tau(   1) = (   0.5000000   0.5000000   0.0001590  )
         2           H   tau(   2) = (   0.5000000   0.5384535   0.0302364  )
         3           H   tau(   3) = (   0.5000000   0.4615465   0.0297364  )

   Crystallographic axes

     site n.     atom                  positions (cryst. coord.)
         1           O   tau(   1) = (  0.5000000  0.5000000  0.0001590  )
         2           H   tau(   2) = (  0.5000000  0.5384535  0.0302364  )
         3           H   tau(   3) = (  0.5000000  0.4615465  0.0297364  )

     number of k points=     1
                       cart. coord. in units 2pi/alat
        k(    1) = (   0.0000000   0.0000000   0.0000000), wk =   2.0000000

                       cryst. coord.
        k(    1) = (   0.0000000   0.0000000   0.0000000), wk =   2.0000000

     Dense  grid: 14236565 G-vectors     FFT dimensions: ( 320, 320, 320)

     Smooth grid:  3601159 G-vectors     FFT dimensions: ( 192, 192, 192)

     Estimated max dynamical RAM per process >     488.77MB

     Estimated total allocated dynamical RAM >   46922.27MB

     Initial potential from superposition of free atoms
     Check: negative starting charge=   -0.001152

     starting charge    7.99998, renormalised to    8.00000

     negative rho (up, down):  1.152E-03 0.000E+00


     %%%%%%%%%%%%%%%%%%%%%%%%%%%%%%%%%%%%%%%%%%%%%%%%%%%%%%%%%%%%%%%%%%%%%%%%
     %                                                                      %
     % You are using vdW-DF, which was implemented by the Thonhauser group. %
     % Please cite the following two papers that made this development      %
     % possible and the two reviews that describe the various versions:     %
     %                                                                      %
     %   T. Thonhauser et al., PRL 115, 136402 (2015).                      %
     %   T. Thonhauser et al., PRB 76, 125112 (2007).                       %
     %   K. Berland et al., Rep. Prog. Phys. 78, 066501 (2015).             %
     %   D.C. Langreth et al., J. Phys.: Condens. Matter 21, 084203 (2009). %
     %                                                                      %
     %                                                                      %
     % If you are calculating the stress with vdW-DF, please also cite:     %
     %                                                                      %
     %   R. Sabatini et al., J. Phys.: Condens. Matter 24, 424209 (2012).   %
     %                                                                      %
     %%%%%%%%%%%%%%%%%%%%%%%%%%%%%%%%%%%%%%%%%%%%%%%%%%%%%%%%%%%%%%%%%%%%%%%%


     Carrying out vdW-DF run using the following parameters:
     Nqs    =  20  Npoints =  1024  r_max =  100.000
     q_mesh =  0.00001000  0.04494208  0.09755937  0.15916263
               0.23128650  0.31572767  0.41458969  0.53033537
               0.66584808  0.82450364  1.01025438  1.22772762
               1.48234092  1.78043706  2.12944203  2.53805004
               3.01644009  3.57652955  4.23227104  5.00000000


     -----------------------------------------------
     Non-local corr. energy    =       0.13357538 Ry
     -----------------------------------------------

     Starting wfc are    6 randomized atomic wfcs +   34 random wfc
     Checking if some PAW data can be deallocated... 
       node    0, deallocated PAW data for type:  2
       node    1, deallocated PAW data for type:  2
       node    2, deallocated PAW data for type:  2
       node    3, deallocated PAW data for type:  2
       node    4, deallocated PAW data for type:  2
       node    5, deallocated PAW data for type:  2
       node    6, deallocated PAW data for type:  2
       node    7, deallocated PAW data for type:  2
       node    8, deallocated PAW data for type:  2
       node    9, deallocated PAW data for type:  2
       node   10, deallocated PAW data for type:  2
       node   11, deallocated PAW data for type:  2
       node   12, deallocated PAW data for type:  2
       node   13, deallocated PAW data for type:  2
       node   14, deallocated PAW data for type:  2
       node   15, deallocated PAW data for type:  2
       node   16, deallocated PAW data for type:  2
       node   17, deallocated PAW data for type:  2
       node   18, deallocated PAW data for type:  2
       node   19, deallocated PAW data for type:  2
       node   20, deallocated PAW data for type:  2
       node   21, deallocated PAW data for type:  2
       node   22, deallocated PAW data for type:  2
       node   23, deallocated PAW data for type:  2
       node   24, deallocated PAW data for type:  2
       node   25, deallocated PAW data for type:  2
       node   26, deallocated PAW data for type:  2
       node   27, deallocated PAW data for type:  2
       node   28, deallocated PAW data for type:  2
       node   29, deallocated PAW data for type:  2
       node   30, deallocated PAW data for type:  2
       node   31, deallocated PAW data for type:  2
       node   32, deallocated PAW data for type:  1
       node   33, deallocated PAW data for type:  1
       node   34, deallocated PAW data for type:  1
       node   35, deallocated PAW data for type:  1
       node   36, deallocated PAW data for type:  1
       node   37, deallocated PAW data for type:  1
       node   38, deallocated PAW data for type:  1
       node   39, deallocated PAW data for type:  1
       node   40, deallocated PAW data for type:  1
       node   41, deallocated PAW data for type:  1
       node   42, deallocated PAW data for type:  1
       node   43, deallocated PAW data for type:  1
       node   44, deallocated PAW data for type:  1
       node   45, deallocated PAW data for type:  1
       node   46, deallocated PAW data for type:  1
       node   47, deallocated PAW data for type:  1
       node   48, deallocated PAW data for type:  1
       node   49, deallocated PAW data for type:  1
       node   50, deallocated PAW data for type:  1
       node   51, deallocated PAW data for type:  1
       node   52, deallocated PAW data for type:  1
       node   53, deallocated PAW data for type:  1
       node   54, deallocated PAW data for type:  1
       node   55, deallocated PAW data for type:  1
       node   56, deallocated PAW data for type:  1
       node   57, deallocated PAW data for type:  1
       node   58, deallocated PAW data for type:  1
       node   59, deallocated PAW data for type:  1
       node   60, deallocated PAW data for type:  1
       node   61, deallocated PAW data for type:  1
       node   62, deallocated PAW data for type:  1
       node   63, deallocated PAW data for type:  1
       node   64, deallocated PAW data for type:  1
       node   65, deallocated PAW data for type:  1
       node   66, deallocated PAW data for type:  1
       node   67, deallocated PAW data for type:  1
       node   68, deallocated PAW data for type:  1
       node   69, deallocated PAW data for type:  1
       node   70, deallocated PAW data for type:  1
       node   71, deallocated PAW data for type:  1
       node   72, deallocated PAW data for type:  1
       node   73, deallocated PAW data for type:  1
       node   74, deallocated PAW data for type:  1
       node   75, deallocated PAW data for type:  1
       node   76, deallocated PAW data for type:  1
       node   77, deallocated PAW data for type:  1
       node   78, deallocated PAW data for type:  1
       node   79, deallocated PAW data for type:  1
       node   80, deallocated PAW data for type:  1
       node   81, deallocated PAW data for type:  1
       node   82, deallocated PAW data for type:  1
       node   83, deallocated PAW data for type:  1
       node   84, deallocated PAW data for type:  1
       node   85, deallocated PAW data for type:  1
       node   86, deallocated PAW data for type:  1
       node   87, deallocated PAW data for type:  1
       node   88, deallocated PAW data for type:  1
       node   89, deallocated PAW data for type:  1
       node   90, deallocated PAW data for type:  1
       node   91, deallocated PAW data for type:  1
       node   92, deallocated PAW data for type:  1
       node   93, deallocated PAW data for type:  1
       node   94, deallocated PAW data for type:  1
       node   95, deallocated PAW data for type:  1

     total cpu time spent up to now is       25.5 secs

     per-process dynamical memory:   235.5 Mb

     Self-consistent Calculation

     iteration #  1     ecut=    62.47 Ry     beta=0.33
     Davidson diagonalization with overlap
     ethr =  1.00E-02,  avg # of iterations = 12.0

     negative rho (up, down):  1.365E-03 0.000E+00


     -----------------------------------------------
     Non-local corr. energy    =       0.13509076 Ry
     -----------------------------------------------


     total cpu time spent up to now is       34.9 secs

     total energy              =     -44.94334244 Ry
     Harris-Foulkes estimate   =     -45.19637650 Ry
     estimated scf accuracy    <       0.53719728 Ry

     iteration #  2     ecut=    62.47 Ry     beta=0.33
     Davidson diagonalization with overlap
     ethr =  6.71E-03,  avg # of iterations =  1.0

     negative rho (up, down):  9.002E-04 0.000E+00


     -----------------------------------------------
     Non-local corr. energy    =       0.13564658 Ry
     -----------------------------------------------


     total cpu time spent up to now is       41.7 secs

     total energy              =     -44.98718117 Ry
     Harris-Foulkes estimate   =     -45.00597828 Ry
     estimated scf accuracy    <       0.04688173 Ry

     iteration #  3     ecut=    62.47 Ry     beta=0.33
     Davidson diagonalization with overlap
     ethr =  5.86E-04,  avg # of iterations =  6.0

     negative rho (up, down):  1.513E-03 0.000E+00


     -----------------------------------------------
     Non-local corr. energy    =       0.13504158 Ry
     -----------------------------------------------


     total cpu time spent up to now is       49.5 secs

     total energy              =     -45.00689085 Ry
     Harris-Foulkes estimate   =     -45.03659148 Ry
     estimated scf accuracy    <       0.04561807 Ry

     iteration #  4     ecut=    62.47 Ry     beta=0.33
     Davidson diagonalization with overlap
     ethr =  5.70E-04,  avg # of iterations =  3.0

     negative rho (up, down):  1.558E-03 0.000E+00


     -----------------------------------------------
     Non-local corr. energy    =       0.13632623 Ry
     -----------------------------------------------


     total cpu time spent up to now is       56.5 secs

     total energy              =     -45.01021411 Ry
     Harris-Foulkes estimate   =     -45.04387645 Ry
     estimated scf accuracy    <       0.06615369 Ry

     iteration #  5     ecut=    62.47 Ry     beta=0.33
     Davidson diagonalization with overlap
     ethr =  5.70E-04,  avg # of iterations =  1.0

     negative rho (up, down):  1.493E-03 0.000E+00


     -----------------------------------------------
     Non-local corr. energy    =       0.13628847 Ry
     -----------------------------------------------


     total cpu time spent up to now is       63.1 secs

     total energy              =     -45.01769053 Ry
     Harris-Foulkes estimate   =     -45.01802534 Ry
     estimated scf accuracy    <       0.00403645 Ry

     iteration #  6     ecut=    62.47 Ry     beta=0.33
     Davidson diagonalization with overlap
     ethr =  5.05E-05,  avg # of iterations = 13.0

     negative rho (up, down):  1.493E-03 0.000E+00


     -----------------------------------------------
     Non-local corr. energy    =       0.13622965 Ry
     -----------------------------------------------


     total cpu time spent up to now is       71.8 secs

     total energy              =     -45.02469041 Ry
     Harris-Foulkes estimate   =     -45.02500245 Ry
     estimated scf accuracy    <       0.00138198 Ry

     iteration #  7     ecut=    62.47 Ry     beta=0.33
     Davidson diagonalization with overlap
     ethr =  1.73E-05,  avg # of iterations =  4.0

     negative rho (up, down):  1.566E-03 0.000E+00


     -----------------------------------------------
     Non-local corr. energy    =       0.13615248 Ry
     -----------------------------------------------


     total cpu time spent up to now is       78.7 secs

     total energy              =     -45.02437095 Ry
     Harris-Foulkes estimate   =     -45.02471749 Ry
     estimated scf accuracy    <       0.00069955 Ry

     iteration #  8     ecut=    62.47 Ry     beta=0.33
     Davidson diagonalization with overlap
     ethr =  8.74E-06,  avg # of iterations =  3.0

     negative rho (up, down):  1.573E-03 0.000E+00


     -----------------------------------------------
     Non-local corr. energy    =       0.13614819 Ry
     -----------------------------------------------


     total cpu time spent up to now is       85.6 secs

     total energy              =     -45.02463945 Ry
     Harris-Foulkes estimate   =     -45.02464209 Ry
     estimated scf accuracy    <       0.00007210 Ry

     iteration #  9     ecut=    62.47 Ry     beta=0.33
     Davidson diagonalization with overlap
     ethr =  9.01E-07,  avg # of iterations = 20.0

     negative rho (up, down):  1.586E-03 0.000E+00


     -----------------------------------------------
     Non-local corr. energy    =       0.13614773 Ry
     -----------------------------------------------


     total cpu time spent up to now is       94.5 secs

     total energy              =     -45.02463631 Ry
     Harris-Foulkes estimate   =     -45.02464007 Ry
     estimated scf accuracy    <       0.00006435 Ry

     iteration # 10     ecut=    62.47 Ry     beta=0.33
     Davidson diagonalization with overlap
     ethr =  8.04E-07,  avg # of iterations =  1.0

     negative rho (up, down):  1.593E-03 0.000E+00


     -----------------------------------------------
     Non-local corr. energy    =       0.13615416 Ry
     -----------------------------------------------


     total cpu time spent up to now is      101.1 secs

     total energy              =     -45.02462417 Ry
     Harris-Foulkes estimate   =     -45.02463645 Ry
     estimated scf accuracy    <       0.00005372 Ry

     iteration # 11     ecut=    62.47 Ry     beta=0.33
     Davidson diagonalization with overlap
     ethr =  6.72E-07,  avg # of iterations =  1.0

     negative rho (up, down):  1.592E-03 0.000E+00


     -----------------------------------------------
     Non-local corr. energy    =       0.13615414 Ry
     -----------------------------------------------


     total cpu time spent up to now is      107.7 secs

     total energy              =     -45.02462501 Ry
     Harris-Foulkes estimate   =     -45.02462553 Ry
     estimated scf accuracy    <       0.00002364 Ry

     iteration # 12     ecut=    62.47 Ry     beta=0.33
     Davidson diagonalization with overlap
     ethr =  2.96E-07,  avg # of iterations =  1.0

     negative rho (up, down):  1.593E-03 0.000E+00


     -----------------------------------------------
     Non-local corr. energy    =       0.13615411 Ry
     -----------------------------------------------


     total cpu time spent up to now is      114.4 secs

     total energy              =     -45.02462505 Ry
     Harris-Foulkes estimate   =     -45.02462541 Ry
     estimated scf accuracy    <       0.00002149 Ry

     iteration # 13     ecut=    62.47 Ry     beta=0.33
     Davidson diagonalization with overlap
     ethr =  2.69E-07,  avg # of iterations =  1.0

     negative rho (up, down):  1.593E-03 0.000E+00


     -----------------------------------------------
     Non-local corr. energy    =       0.13615411 Ry
     -----------------------------------------------


     total cpu time spent up to now is      121.0 secs

     total energy              =     -45.02462533 Ry
     Harris-Foulkes estimate   =     -45.02462532 Ry
     estimated scf accuracy    <       0.00001789 Ry

     iteration # 14     ecut=    62.47 Ry     beta=0.33
     Davidson diagonalization with overlap
     ethr =  2.24E-07,  avg # of iterations =  1.0

     negative rho (up, down):  1.593E-03 0.000E+00


     -----------------------------------------------
     Non-local corr. energy    =       0.13615360 Ry
     -----------------------------------------------


     total cpu time spent up to now is      127.7 secs

     total energy              =     -45.02462614 Ry
     Harris-Foulkes estimate   =     -45.02462556 Ry
     estimated scf accuracy    <       0.00001727 Ry

     iteration # 15     ecut=    62.47 Ry     beta=0.33
     Davidson diagonalization with overlap
     ethr =  2.16E-07,  avg # of iterations =  1.0

     negative rho (up, down):  1.593E-03 0.000E+00


     -----------------------------------------------
     Non-local corr. energy    =       0.13615388 Ry
     -----------------------------------------------


     total cpu time spent up to now is      134.3 secs

     total energy              =     -45.02462587 Ry
     Harris-Foulkes estimate   =     -45.02462632 Ry
     estimated scf accuracy    <       0.00001695 Ry

     iteration # 16     ecut=    62.47 Ry     beta=0.33
     Davidson diagonalization with overlap
     ethr =  2.12E-07,  avg # of iterations =  1.0

     negative rho (up, down):  1.591E-03 0.000E+00


     -----------------------------------------------
     Non-local corr. energy    =       0.13615448 Ry
     -----------------------------------------------


     total cpu time spent up to now is      141.0 secs

     total energy              =     -45.02462609 Ry
     Harris-Foulkes estimate   =     -45.02462604 Ry
     estimated scf accuracy    <       0.00001510 Ry

     iteration # 17     ecut=    62.47 Ry     beta=0.33
     Davidson diagonalization with overlap
     ethr =  1.89E-07,  avg # of iterations =  1.0

     negative rho (up, down):  1.591E-03 0.000E+00


     -----------------------------------------------
     Non-local corr. energy    =       0.13615520 Ry
     -----------------------------------------------


     total cpu time spent up to now is      147.6 secs

     total energy              =     -45.02462417 Ry
     Harris-Foulkes estimate   =     -45.02462618 Ry
     estimated scf accuracy    <       0.00001399 Ry

     iteration # 18     ecut=    62.47 Ry     beta=0.33
     Davidson diagonalization with overlap
     ethr =  1.75E-07,  avg # of iterations =  2.0

     negative rho (up, down):  1.582E-03 0.000E+00


     -----------------------------------------------
     Non-local corr. energy    =       0.13615680 Ry
     -----------------------------------------------


     total cpu time spent up to now is      154.3 secs

     total energy              =     -45.02462324 Ry
     Harris-Foulkes estimate   =     -45.02462498 Ry
     estimated scf accuracy    <       0.00000560 Ry

     iteration # 19     ecut=    62.47 Ry     beta=0.33
     Davidson diagonalization with overlap
     ethr =  7.00E-08,  avg # of iterations =  1.0

     negative rho (up, down):  1.572E-03 0.000E+00


     -----------------------------------------------
     Non-local corr. energy    =       0.13615712 Ry
     -----------------------------------------------


     total cpu time spent up to now is      161.0 secs

     total energy              =     -45.02462377 Ry
     Harris-Foulkes estimate   =     -45.02462379 Ry
     estimated scf accuracy    <       0.00000068 Ry

     iteration # 20     ecut=    62.47 Ry     beta=0.33
     Davidson diagonalization with overlap
     ethr =  8.47E-09,  avg # of iterations =  4.0

     negative rho (up, down):  1.571E-03 0.000E+00


     -----------------------------------------------
     Non-local corr. energy    =       0.13615663 Ry
     -----------------------------------------------


     total cpu time spent up to now is      167.9 secs

     total energy              =     -45.02462475 Ry
     Harris-Foulkes estimate   =     -45.02462544 Ry
     estimated scf accuracy    <       0.00000232 Ry

     iteration # 21     ecut=    62.47 Ry     beta=0.33
     Davidson diagonalization with overlap
     ethr =  8.47E-09,  avg # of iterations =  1.0

     negative rho (up, down):  1.571E-03 0.000E+00


     -----------------------------------------------
     Non-local corr. energy    =       0.13615676 Ry
     -----------------------------------------------


     total cpu time spent up to now is      174.6 secs

     total energy              =     -45.02462485 Ry
     Harris-Foulkes estimate   =     -45.02462481 Ry
     estimated scf accuracy    <       0.00000105 Ry

     iteration # 22     ecut=    62.47 Ry     beta=0.33
     Davidson diagonalization with overlap
     ethr =  8.47E-09,  avg # of iterations =  1.0

     negative rho (up, down):  1.569E-03 0.000E+00


     -----------------------------------------------
     Non-local corr. energy    =       0.13615729 Ry
     -----------------------------------------------


     total cpu time spent up to now is      181.2 secs

     total energy              =     -45.02462512 Ry
     Harris-Foulkes estimate   =     -45.02462486 Ry
     estimated scf accuracy    <       0.00000111 Ry

     iteration # 23     ecut=    62.47 Ry     beta=0.33
     Davidson diagonalization with overlap
     ethr =  8.47E-09,  avg # of iterations =  1.0

     negative rho (up, down):  1.568E-03 0.000E+00


     -----------------------------------------------
     Non-local corr. energy    =       0.13615765 Ry
     -----------------------------------------------


     total cpu time spent up to now is      187.8 secs

     total energy              =     -45.02462530 Ry
     Harris-Foulkes estimate   =     -45.02462513 Ry
     estimated scf accuracy    <       0.00000143 Ry

     iteration # 24     ecut=    62.47 Ry     beta=0.33
     Davidson diagonalization with overlap
     ethr =  8.47E-09,  avg # of iterations =  1.0

     negative rho (up, down):  1.569E-03 0.000E+00


     -----------------------------------------------
     Non-local corr. energy    =       0.13615756 Ry
     -----------------------------------------------


     total cpu time spent up to now is      194.5 secs

     total energy              =     -45.02462516 Ry
     Harris-Foulkes estimate   =     -45.02462531 Ry
     estimated scf accuracy    <       0.00000167 Ry

     iteration # 25     ecut=    62.47 Ry     beta=0.33
     Davidson diagonalization with overlap
     ethr =  8.47E-09,  avg # of iterations =  1.0

     negative rho (up, down):  1.574E-03 0.000E+00


     -----------------------------------------------
     Non-local corr. energy    =       0.13615618 Ry
     -----------------------------------------------


     total cpu time spent up to now is      201.2 secs

     total energy              =     -45.02462391 Ry
     Harris-Foulkes estimate   =     -45.02462516 Ry
     estimated scf accuracy    <       0.00000137 Ry

     iteration # 26     ecut=    62.47 Ry     beta=0.33
     Davidson diagonalization with overlap
     ethr =  8.47E-09,  avg # of iterations =  3.0

     negative rho (up, down):  1.572E-03 0.000E+00


     -----------------------------------------------
     Non-local corr. energy    =       0.13615668 Ry
     -----------------------------------------------


     total cpu time spent up to now is      208.0 secs

     total energy              =     -45.02462452 Ry
     Harris-Foulkes estimate   =     -45.02462449 Ry
     estimated scf accuracy    <       0.00000034 Ry

     iteration # 27     ecut=    62.47 Ry     beta=0.33
     Davidson diagonalization with overlap
     ethr =  4.20E-09,  avg # of iterations =  1.0

     negative rho (up, down):  1.572E-03 0.000E+00


     -----------------------------------------------
     Non-local corr. energy    =       0.13615677 Ry
     -----------------------------------------------


     total cpu time spent up to now is      214.7 secs

     total energy              =     -45.02462455 Ry
     Harris-Foulkes estimate   =     -45.02462452 Ry
     estimated scf accuracy    <       0.00000027 Ry

     iteration # 28     ecut=    62.47 Ry     beta=0.33
     Davidson diagonalization with overlap
     ethr =  3.37E-09,  avg # of iterations =  3.0

     negative rho (up, down):  1.572E-03 0.000E+00


     -----------------------------------------------
     Non-local corr. energy    =       0.13615661 Ry
     -----------------------------------------------


     total cpu time spent up to now is      221.5 secs

     total energy              =     -45.02462462 Ry
     Harris-Foulkes estimate   =     -45.02462470 Ry
     estimated scf accuracy    <       0.00000018 Ry

     iteration # 29     ecut=    62.47 Ry     beta=0.33
     Davidson diagonalization with overlap
     ethr =  2.19E-09,  avg # of iterations =  1.0

     negative rho (up, down):  1.572E-03 0.000E+00


     -----------------------------------------------
     Non-local corr. energy    =       0.13615642 Ry
     -----------------------------------------------


     total cpu time spent up to now is      228.2 secs

     total energy              =     -45.02462465 Ry
     Harris-Foulkes estimate   =     -45.02462463 Ry
     estimated scf accuracy    <       0.00000005 Ry

     iteration # 30     ecut=    62.47 Ry     beta=0.33
     Davidson diagonalization with overlap
     ethr =  5.87E-10,  avg # of iterations =  1.0

     negative rho (up, down):  1.576E-03 0.000E+00


     -----------------------------------------------
     Non-local corr. energy    =       0.13615508 Ry
     -----------------------------------------------


     total cpu time spent up to now is      234.9 secs

     total energy              =     -45.02462431 Ry
     Harris-Foulkes estimate   =     -45.02462465 Ry
     estimated scf accuracy    <       0.00000008 Ry

     iteration # 31     ecut=    62.47 Ry     beta=0.33
     Davidson diagonalization with overlap
     ethr =  5.87E-10,  avg # of iterations =  4.0

     negative rho (up, down):  1.577E-03 0.000E+00


     -----------------------------------------------
     Non-local corr. energy    =       0.13615531 Ry
     -----------------------------------------------


     total cpu time spent up to now is      241.8 secs

     total energy              =     -45.02462449 Ry
     Harris-Foulkes estimate   =     -45.02462448 Ry
     estimated scf accuracy    <       0.00000046 Ry

     iteration # 32     ecut=    62.47 Ry     beta=0.33
     Davidson diagonalization with overlap
     ethr =  5.87E-10,  avg # of iterations =  1.0

     negative rho (up, down):  1.574E-03 0.000E+00


     -----------------------------------------------
     Non-local corr. energy    =       0.13615556 Ry
     -----------------------------------------------


     total cpu time spent up to now is      248.5 secs

     total energy              =     -45.02462463 Ry
     Harris-Foulkes estimate   =     -45.02462449 Ry
     estimated scf accuracy    <       0.00000049 Ry

     iteration # 33     ecut=    62.47 Ry     beta=0.33
     Davidson diagonalization with overlap
     ethr =  5.87E-10,  avg # of iterations =  1.0

     negative rho (up, down):  1.571E-03 0.000E+00


     -----------------------------------------------
     Non-local corr. energy    =       0.13615598 Ry
     -----------------------------------------------


     total cpu time spent up to now is      255.1 secs

     total energy              =     -45.02462463 Ry
     Harris-Foulkes estimate   =     -45.02462464 Ry
     estimated scf accuracy    <       0.00000041 Ry

     iteration # 34     ecut=    62.47 Ry     beta=0.33
     Davidson diagonalization with overlap
     ethr =  5.87E-10,  avg # of iterations =  3.0

     negative rho (up, down):  1.569E-03 0.000E+00


     -----------------------------------------------
     Non-local corr. energy    =       0.13615599 Ry
     -----------------------------------------------


     total cpu time spent up to now is      262.0 secs

     total energy              =     -45.02462468 Ry
     Harris-Foulkes estimate   =     -45.02462467 Ry
     estimated scf accuracy    <       0.00000002 Ry

     iteration # 35     ecut=    62.47 Ry     beta=0.33
     Davidson diagonalization with overlap
     ethr =  2.94E-10,  avg # of iterations =  1.0

     negative rho (up, down):  1.569E-03 0.000E+00


     -----------------------------------------------
     Non-local corr. energy    =       0.13615601 Ry
     -----------------------------------------------


     total cpu time spent up to now is      268.6 secs

     total energy              =     -45.02462471 Ry
     Harris-Foulkes estimate   =     -45.02462468 Ry
     estimated scf accuracy    <       0.00000002 Ry

     iteration # 36     ecut=    62.47 Ry     beta=0.33
     Davidson diagonalization with overlap
     ethr =  1.94E-10,  avg # of iterations =  3.0

     negative rho (up, down):  1.569E-03 0.000E+00


     -----------------------------------------------
     Non-local corr. energy    =       0.13615591 Ry
     -----------------------------------------------


     total cpu time spent up to now is      275.5 secs

     total energy              =     -45.02462469 Ry
     Harris-Foulkes estimate   =     -45.02462471 Ry
     estimated scf accuracy    <          8.0E-09 Ry

     iteration # 37     ecut=    62.47 Ry     beta=0.33
     Davidson diagonalization with overlap
     ethr =  1.00E-10,  avg # of iterations =  1.0

     negative rho (up, down):  1.569E-03 0.000E+00


     -----------------------------------------------
     Non-local corr. energy    =       0.13615593 Ry
     -----------------------------------------------


     total cpu time spent up to now is      282.2 secs

     total energy              =     -45.02462470 Ry
     Harris-Foulkes estimate   =     -45.02462470 Ry
     estimated scf accuracy    <          1.4E-09 Ry

     iteration # 38     ecut=    62.47 Ry     beta=0.33
     Davidson diagonalization with overlap
     ethr =  1.80E-11,  avg # of iterations =  3.0

     negative rho (up, down):  1.569E-03 0.000E+00


     -----------------------------------------------
     Non-local corr. energy    =       0.13615594 Ry
     -----------------------------------------------


     total cpu time spent up to now is      289.0 secs

     total energy              =     -45.02462470 Ry
     Harris-Foulkes estimate   =     -45.02462470 Ry
     estimated scf accuracy    <          1.1E-09 Ry

     iteration # 39     ecut=    62.47 Ry     beta=0.33
     Davidson diagonalization with overlap
     ethr =  1.43E-11,  avg # of iterations =  1.0

     negative rho (up, down):  1.569E-03 0.000E+00


     -----------------------------------------------
     Non-local corr. energy    =       0.13615592 Ry
     -----------------------------------------------


     total cpu time spent up to now is      295.7 secs

     total energy              =     -45.02462469 Ry
     Harris-Foulkes estimate   =     -45.02462470 Ry
     estimated scf accuracy    <          1.1E-09 Ry

     iteration # 40     ecut=    62.47 Ry     beta=0.33
     Davidson diagonalization with overlap
     ethr =  1.43E-11,  avg # of iterations =  3.0

     negative rho (up, down):  1.569E-03 0.000E+00


     -----------------------------------------------
     Non-local corr. energy    =       0.13615591 Ry
     -----------------------------------------------


     total cpu time spent up to now is      302.5 secs

     total energy              =     -45.02462469 Ry
     Harris-Foulkes estimate   =     -45.02462469 Ry
     estimated scf accuracy    <          4.6E-10 Ry

     iteration # 41     ecut=    62.47 Ry     beta=0.33
     Davidson diagonalization with overlap
     ethr =  5.74E-12,  avg # of iterations =  1.0

     negative rho (up, down):  1.569E-03 0.000E+00


     -----------------------------------------------
     Non-local corr. energy    =       0.13615593 Ry
     -----------------------------------------------


     total cpu time spent up to now is      309.1 secs

     total energy              =     -45.02462469 Ry
     Harris-Foulkes estimate   =     -45.02462469 Ry
     estimated scf accuracy    <          1.6E-10 Ry

     iteration # 42     ecut=    62.47 Ry     beta=0.33
     Davidson diagonalization with overlap
     ethr =  2.06E-12,  avg # of iterations =  3.0

     negative rho (up, down):  1.569E-03 0.000E+00


     -----------------------------------------------
     Non-local corr. energy    =       0.13615592 Ry
     -----------------------------------------------


     total cpu time spent up to now is      316.0 secs

     total energy              =     -45.02462469 Ry
     Harris-Foulkes estimate   =     -45.02462469 Ry
     estimated scf accuracy    <          5.0E-11 Ry

     iteration # 43     ecut=    62.47 Ry     beta=0.33
     Davidson diagonalization with overlap
     ethr =  6.23E-13,  avg # of iterations =  3.0

     negative rho (up, down):  1.569E-03 0.000E+00


     -----------------------------------------------
     Non-local corr. energy    =       0.13615592 Ry
     -----------------------------------------------


     total cpu time spent up to now is      322.8 secs

     total energy              =     -45.02462469 Ry
     Harris-Foulkes estimate   =     -45.02462469 Ry
     estimated scf accuracy    <          1.6E-10 Ry

     iteration # 44     ecut=    62.47 Ry     beta=0.33
     Davidson diagonalization with overlap
     ethr =  6.23E-13,  avg # of iterations =  1.0

     negative rho (up, down):  1.569E-03 0.000E+00


     -----------------------------------------------
     Non-local corr. energy    =       0.13615592 Ry
     -----------------------------------------------


     total cpu time spent up to now is      329.5 secs

     total energy              =     -45.02462470 Ry
     Harris-Foulkes estimate   =     -45.02462469 Ry
     estimated scf accuracy    <          7.4E-11 Ry

     iteration # 45     ecut=    62.47 Ry     beta=0.33
     Davidson diagonalization with overlap
     ethr =  6.23E-13,  avg # of iterations =  3.0

     negative rho (up, down):  1.569E-03 0.000E+00


     -----------------------------------------------
     Non-local corr. energy    =       0.13615591 Ry
     -----------------------------------------------


     total cpu time spent up to now is      336.2 secs

     End of self-consistent calculation

          k = 0.0000 0.0000 0.0000 (450127 PWs)   bands (ev):

   -25.5965 -13.4969  -9.7112  -7.6530  -1.4829  -0.1536  -0.0087   0.1331
     0.1427   0.1858   0.2115   0.3019   0.3124   0.4474   0.4673   0.5454
     0.5465   0.5495   0.5598   0.5768   0.5873   0.5882   0.5885   0.7541
     0.7772   0.8640   0.8801   0.9202   0.9279   0.9422   0.9553   1.0750
     1.1125   1.2055   1.2246   1.2631   1.2927   1.3835   1.4167   1.4767

     occupation numbers 
     1.0000   1.0000   1.0000   1.0000   0.0000   0.0000   0.0000   0.0000
     0.0000   0.0000   0.0000   0.0000   0.0000   0.0000   0.0000   0.0000
     0.0000   0.0000   0.0000   0.0000   0.0000   0.0000   0.0000   0.0000
     0.0000   0.0000   0.0000   0.0000   0.0000   0.0000   0.0000   0.0000
     0.0000   0.0000   0.0000   0.0000   0.0000   0.0000   0.0000   0.0000

     highest occupied, lowest unoccupied level (ev):    -7.6530   -1.4829

!    total energy              =     -45.02462470 Ry
     Harris-Foulkes estimate   =     -45.02462470 Ry
     estimated scf accuracy    <          4.8E-12 Ry

     total all-electron energy =      -153.871507 Ry

     The total energy is the sum of the following terms:

     one-electron contribution =     -68.79046562 Ry
     hartree contribution      =      36.08266956 Ry
     xc contribution           =      -9.22319194 Ry
     ewald contribution        =       7.13225254 Ry
     one-center paw contrib.   =     -10.22588924 Ry
      -> PAW hartree energy AE =      27.83067289 Ry
      -> PAW hartree energy PS =     -27.79601550 Ry
      -> PAW xc energy AE      =     -17.89390449 Ry
      -> PAW xc energy PS      =       7.63460125 Ry
      -> total E_H with PAW    =      36.11732695 Ry
      -> total E_XC with PAW   =     -19.48249518 Ry

     convergence has been achieved in  45 iterations

     negative rho (up, down):  1.569E-03 0.000E+00


     -----------------------------------------------
     Non-local corr. energy    =       0.13615591 Ry
     -----------------------------------------------


     Forces acting on atoms (cartesian axes, Ry/au):

     atom    1 type  1   force =     0.00000000    0.00888173    0.00774568
     atom    2 type  2   force =     0.00000000   -0.00774847   -0.00733606
     atom    3 type  2   force =     0.00000000   -0.00113326   -0.00040392
     The non-local contrib.  to forces
     atom    1 type  1   force =     0.00000000   -0.01456090    2.52126851
     atom    2 type  2   force =     0.00000000   -0.08985298   -0.06468950
     atom    3 type  2   force =     0.00000000    0.09236353   -0.06546655
     The ionic contribution  to forces
     atom    1 type  1   force =     0.00000000    0.05294784   -4.35245001
     atom    2 type  2   force =     0.00000000    3.01117448    2.17547670
     atom    3 type  2   force =     0.00000000   -3.06412232    2.17697330
     The local contribution  to forces
     atom    1 type  1   force =    -0.00001460   -0.02960958    1.86321642
     atom    2 type  2   force =    -0.00000127   -2.92906965   -2.11812305
     atom    3 type  2   force =    -0.00000128    2.97062519   -2.11191047
     The core correction contribution to forces
     atom    1 type  1   force =     0.00000014    0.00010409   -0.02429080
     atom    2 type  2   force =     0.00000000    0.00000000    0.00000000
     atom    3 type  2   force =     0.00000000    0.00000000    0.00000000
     The Hubbard contrib.    to forces
     atom    1 type  1   force =     0.00000000    0.00000000    0.00000000
     atom    2 type  2   force =     0.00000000    0.00000000    0.00000000
     atom    3 type  2   force =     0.00000000    0.00000000    0.00000000
     The SCF correction term to forces
     atom    1 type  1   force =     0.00000000    0.00000029    0.00000156
     atom    2 type  2   force =     0.00000000   -0.00000031   -0.00000021
     atom    3 type  2   force =     0.00000000    0.00000034   -0.00000020

     Total force =     0.015943     Total SCF correction =     0.000002

     Writing output data file H2O_IR.save
 
     init_run     :     45.29s CPU     23.81s WALL (       1 calls)
     electrons    :    606.16s CPU    311.44s WALL (       1 calls)
     forces       :     14.66s CPU      7.59s WALL (       1 calls)

     Called by init_run:
     wfcinit      :      0.70s CPU      0.39s WALL (       1 calls)
     wfcinit:atom :      0.00s CPU      0.00s WALL (       1 calls)
     wfcinit:wfcr :      0.68s CPU      0.36s WALL (       1 calls)
     potinit      :     14.06s CPU      7.04s WALL (       1 calls)

     Called by electrons:
     c_bands      :     85.45s CPU     45.48s WALL (      45 calls)
     sum_band     :     39.39s CPU     20.63s WALL (      45 calls)
     v_of_rho     :    457.90s CPU    235.49s WALL (      46 calls)
     v_h          :      4.94s CPU      3.05s WALL (      46 calls)
     v_xc         :    463.00s CPU    237.46s WALL (      47 calls)
     newd         :     11.06s CPU      6.60s WALL (      46 calls)
     PAW_pot      :      5.76s CPU      1.69s WALL (      46 calls)
     mix_rho      :     11.21s CPU      4.56s WALL (      45 calls)

     Called by c_bands:
     init_us_2    :      0.08s CPU      0.08s WALL (      91 calls)
     cegterg      :     85.33s CPU     45.35s WALL (      45 calls)

     Called by sum_band:
     sum_band:bec :      0.00s CPU      0.00s WALL (      45 calls)
     addusdens    :      6.78s CPU      3.73s WALL (      45 calls)

     Called by *egterg:
     h_psi        :     58.10s CPU     30.81s WALL (     170 calls)
     s_psi        :      0.04s CPU      0.04s WALL (     170 calls)
     g_psi        :      0.02s CPU      0.02s WALL (     124 calls)
     cdiaghg      :     12.62s CPU      5.69s WALL (     169 calls)
     cegterg:over :      3.82s CPU      1.79s WALL (     124 calls)
     cegterg:upda :      1.63s CPU      0.61s WALL (     124 calls)
     cegterg:last :      0.25s CPU      0.25s WALL (      49 calls)
     cdiaghg:chol :      0.16s CPU      0.16s WALL (     169 calls)
     cdiaghg:inve :      0.11s CPU      0.11s WALL (     169 calls)
     cdiaghg:para :      0.12s CPU      0.12s WALL (     338 calls)

     Called by h_psi:
     h_psi:pot    :     58.04s CPU     30.76s WALL (     170 calls)
     h_psi:calbec :      0.45s CPU      0.13s WALL (     170 calls)
     vloc_psi     :     57.55s CPU     30.59s WALL (     170 calls)
     add_vuspsi   :      0.04s CPU      0.04s WALL (     170 calls)

     General routines
     calbec       :      0.50s CPU      0.17s WALL (     219 calls)
     fft          :    245.65s CPU    123.36s WALL (    3093 calls)
     ffts         :      1.65s CPU      0.64s WALL (      91 calls)
     fftw         :     64.67s CPU     33.21s WALL (   10240 calls)
     interpolate  :      8.37s CPU      4.29s WALL (      91 calls)
 
     Parallel routines
     fft_scatter  :    191.65s CPU     98.42s WALL (   13424 calls)

     PAW routines
     PAW_pot      :      5.76s CPU      1.69s WALL (      46 calls)
     PAW_symme    :      0.01s CPU      0.01s WALL (      91 calls)
 
     PWSCF        : 11m11.96s CPU     5m48.06s WALL

 
   This run was terminated on:  14:35:50   9Feb2026            

=------------------------------------------------------------------------------=
   JOB DONE.
=------------------------------------------------------------------------------=
