
     Program PWSCF v.6.1 starts on 11Feb2026 at  1:34: 6 

     This program is part of the open-source Quantum ESPRESSO suite
     for quantum simulation of materials; please cite
         "P. Giannozzi et al., J. Phys.:Condens. Matter 21 395502 (2009);
          URL http://www.quantum-espresso.org", 
     in publications or presentations arising from this work. More details at
     http://www.quantum-espresso.org/quote

     Parallel version (MPI & OpenMP), running on     480 processor cores
     Number of MPI processes:               240
     Threads/MPI process:                     2
     R & G space division:  proc/nbgrp/npool/nimage =     240
     Reading input from espresso.pwi

     Current dimensions of program PWSCF are:
     Max number of different atomic species (ntypx) = 10
     Max number of k-points (npk) =  40000
     Max angular momentum in pseudopotentials (lmaxx) =  3

     IMPORTANT: XC functional enforced from input :
     Exchange-correlation      = VDW-DF2 ( 1  4 13  0 2 0)
     Any further DFT definition will be discarded
     Please, verify this is what you really want

               file Cu.pbe-dn-kjpaw_psl.1.0.0.UPF: wavefunction(s)  4S 3D renormalized
               file C.pbe-n-kjpaw_psl.1.0.0.UPF: wavefunction(s)  2S 2P renormalized
               file O.pbe-n-kjpaw_psl.1.0.0.UPF: wavefunction(s)  2S 2P renormalized
     Message from routine iosys_1drism:
     default density from MOL file(H2O.tip5p.MOL) is used

     Subspace diagonalization in iterative solution of the eigenvalue problem:
     one sub-group per band group will be used
     ELPA distributed-memory algorithm (size of sub-group: 10* 10 procs)


     Molecule # 1 for H2O read from file:
     /work/gf93/f93007/QE/pseudo/H2O.tip5p.MOL
     Density:
         0.72794769E+02 cell^-1
         0.49533750E-02 bohr^-3
         0.55506881E+02 mol/L
         0.99997200E+00 g/cm^3
     Permittivity:
        78.355300
     Number of atoms:   5
     Atoms:
       #  atom      X (angs)      Y (angs)      Z (angs)      Q (e)         E (kcal/mol)  S (angs)
       1  O/h2o     0.00000000    0.00000000    0.00000000    0.00000000    0.16000000    3.12000000
       2  H/h2o     0.75695000    0.58588000    0.00000000    0.24100000    0.04600000    1.00000000
       3  H/h2o    -0.75695000    0.58588000    0.00000000    0.24100000    0.04600000    1.00000000
       4  L/h2o     0.00000000   -0.40415000    0.57154000   -0.24100000    0.04600000    1.80000000
       5  L/h2o     0.00000000   -0.40415000   -0.57154000   -0.24100000    0.04600000    1.80000000


     Molecule # 2 for K+ read from file:
     /work/gf93/f93007/QE/pseudo/K+.oplsaa.MOL
     Density:
         0.13114549E+01 cell^-1
         0.89238936E-04 bohr^-3
         0.10000000E+01 mol/L
         0.39098300E-01 g/cm^3
     Number of atoms:   1
     Atoms:
       #  atom      X (angs)      Y (angs)      Z (angs)      Q (e)         E (kcal/mol)  S (angs)
       1  K         0.00000000    0.00000000    0.00000000    1.00000000    0.00032800    4.93462800


     Molecule # 3 for OH- read from file:
     /work/gf93/f93007/QE/pseudo/OH-.oplsaa.MOL
     Density:
         0.13114549E+01 cell^-1
         0.89238936E-04 bohr^-3
         0.10000000E+01 mol/L
         0.17007340E-01 g/cm^3
     Number of atoms:   2
     Atoms:
       #  atom      X (angs)      Y (angs)      Z (angs)      Q (e)         E (kcal/mol)  S (angs)
       1  O/oh      0.00000000    0.00000000    0.00000000   -1.30000000    0.25000000    3.20000000
       2  H/oh      0.95300000    0.00000000    0.00000000    0.30000000    0.04600000    1.00000000


     Number of total sites:   8
     Index site -> solvent: 
       1  1  1  1  1  2  3  3
     Index site -> atom (in a solvent): 
       1  2  3  4  5  1  1  2


     Number of unique sites:   6
     Multiplicity of unique site: 
       1  2  2  1  1  1
     Index unique site -> site: 
       1:  1
       2:  2  3
       3:  4  5
       4:  6
       5:  7
       6:  8


     1D-RISM info
     ------------
     closure equation        =           KH
     temperature             =     300.0000  kelvin
     coulomb smearing radius =       2.0000  bohr
     number of solvent sites =            8
     nv * (nv + 1) / 2       =           36
     number of grids         =         8345
     maximum of R-space      =     999.8802  bohr
     maximum of G-space      =      26.2150  bohr^-1
     #R-grids in local       =           66
     #G-grids in local       =           66
     number of iterations    =       100000
     convergence threshold   =      1.0E-08
     Gaussian width of bonds =       0.2530  bohr
     size of MDIIS           =           20
     step of MDIIS           =       0.1000
     number of processes     =          128


     Radial FFT:
     number of radial grids   =         8345
     number of FFT grids      =        16689
     good number of FFT grids =           -1
     R-space grids:
       0.00000000E+00  0.11983223E+00  0.23966447E+00  0.35949670E+00  0.47932894E+00
       0.59916117E+00  0.71899341E+00  0.83882564E+00  0.95865788E+00  0.10784901E+01
       ..............  ..............  ..............  ..............  ..............
       0.99880168E+03  0.99892151E+03  0.99904134E+03  0.99916117E+03  0.99928101E+03
       0.99940084E+03  0.99952067E+03  0.99964050E+03  0.99976034E+03  0.99988017E+03
     G-space grids:
       0.00000000E+00  0.31417809E-02  0.62835618E-02  0.94253427E-02  0.12567124E-01
       0.15708904E-01  0.18850685E-01  0.21992466E-01  0.25134247E-01  0.28276028E-01
       ..............  ..............  ..............  ..............  ..............
       0.26186744E+02  0.26189886E+02  0.26193027E+02  0.26196169E+02  0.26199311E+02
       0.26202453E+02  0.26205594E+02  0.26208736E+02  0.26211878E+02  0.26215020E+02


     MPI for site:
     number of site groups     =          128
     #procs in a site group    =            1
     this proc in a site group =            0
     the root in a site group  =            0
     this site group           =            0
     inter-site group comm.    =           20
     intra-site group comm.    =            2
     total number of sites     =           36
     starting index of sites   =            1
     ending index of sites     =            1


     MPI for task:
     #procs in a task group    =          128
     this proc in a task group =            0
     the root in a task group  =            0
     task group comm.          =           20
     total number of vectors   =         8345
     starting index of vectors =            1
     ending index of vectors   =           66
     lengths of vectors        = 
        66   66   66   66   66   66   66   66   66   66
        66   66   66   66   66   66   66   66   66   66
        66   66   66   66   66   65   65   65   65   65
        65   65   65   65   65   65   65   65   65   65
        65   65   65   65   65   65   65   65   65   65
        65   65   65   65   65   65   65   65   65   65
        65   65   65   65   65   65   65   65   65   65
        65   65   65   65   65   65   65   65   65   65
        65   65   65   65   65   65   65   65   65   65
        65   65   65   65   65   65   65   65   65   65
        65   65   65   65   65   65   65   65   65   65
        65   65   65   65   65   65   65   65   65   65
        65   65   65   65   65   65   65   65
     displacement of vectors   = 
         0   66  132  198  264  330  396  462  528  594
       660  726  792  858  924  990 1056 1122 1188 1254
      1320 1386 1452 1518 1584 1650 1715 1780 1845 1910
      1975 2040 2105 2170 2235 2300 2365 2430 2495 2560
      2625 2690 2755 2820 2885 2950 3015 3080 3145 3210
      3275 3340 3405 3470 3535 3600 3665 3730 3795 3860
      3925 3990 4055 4120 4185 4250 4315 4380 4445 4510
      4575 4640 4705 4770 4835 4900 4965 5030 5095 5160
      5225 5290 5355 5420 5485 5550 5615 5680 5745 5810
      5875 5940 6005 6070 6135 6200 6265 6330 6395 6460
      6525 6590 6655 6720 6785 6850 6915 6980 7045 7110
      7175 7240 7305 7370 7435 7500 7565 7630 7695 7760
      7825 7890 7955 8020 8085 8150 8215 8280


     Correlation function is read from file


     1D-RISM Calculation

     iter. #     1  RMS(g-h-1)= 9.995E-09  nbox=  0  T=  300.00K

     End of 1D-RISM calculation


     convergence has been achieved in     1 iterations


     Chemical potential of solvation

     H2O        H2O        Closure      0.106068E+01 kcal/mol
                           GaussFluct  -0.737993E+01 kcal/mol

                K+         Closure     -0.288345E+00 kcal/mol
                           GaussFluct  -0.358438E+00 kcal/mol

                OH-        Closure     -0.764259E+00 kcal/mol
                           GaussFluct  -0.855991E+00 kcal/mol

                Total      Closure      0.808077E-02 kcal/mol
                           GaussFluct  -0.859435E+01 kcal/mol

     K+         H2O        Closure     -0.160051E+02 kcal/mol
                           GaussFluct  -0.198958E+02 kcal/mol

                K+         Closure      0.351561E+06 kcal/mol
                           GaussFluct   0.351561E+06 kcal/mol

                OH-        Closure     -0.351612E+06 kcal/mol
                           GaussFluct  -0.351612E+06 kcal/mol

                Total      Closure     -0.668098E+02 kcal/mol
                           GaussFluct  -0.707592E+02 kcal/mol

     OH-        H2O        Closure     -0.424217E+02 kcal/mol
                           GaussFluct  -0.475134E+02 kcal/mol

                K+         Closure     -0.351612E+06 kcal/mol
                           GaussFluct  -0.351612E+06 kcal/mol

                OH-        Closure      0.351561E+06 kcal/mol
                           GaussFluct   0.351561E+06 kcal/mol

                Total      Closure     -0.934347E+02 kcal/mol
                           GaussFluct  -0.986502E+02 kcal/mol

 
     Parallelization info
     --------------------
     sticks:   dense  smooth     PW     G-vecs:    dense   smooth      PW
     Min          40      16      4                16136     4064     568
     Max          41      17      5                16171     4100     615
     Sum        9661    3865   1057              3875677   980529  140539
 

     Title: 
     Cu-vib                                                                     


     bravais-lattice index     =            0
     lattice parameter (alat)  =      14.9832  a.u.
     unit-cell volume          =   14695.9939 (a.u.)^3
     number of atoms/cell      =           38
     number of atomic types    =            3
     number of electrons       =       406.00
     number of Kohn-Sham states=          244
     kinetic-energy cutoff     =      62.4738  Ry
     charge density cutoff     =     624.7385  Ry
     convergence threshold     =      7.3E-12
     mixing beta               =       0.3333
     number of iterations used =           12  plain     mixing
     Exchange-correlation      = VDW-DF2 ( 1  4 13  0 2 0)

     Effective Screening Medium Method
     =================================
     Boundary Conditions: Vacuum-Slab-Vacuum
     total charge in unit cell        =   0.0000
     grid points for fit at edges     =        4 
 

     celldm(1)=  14.983209  celldm(2)=   0.000000  celldm(3)=   0.000000
     celldm(4)=   0.000000  celldm(5)=   0.000000  celldm(6)=   0.000000

     crystal axes: (cart. coord. in units of alat)
               a(1) = (   1.000000   0.000000   0.000000 )  
               a(2) = (   0.500000   0.866025   0.000000 )  
               a(3) = (   0.000000   0.000000   5.044917 )  

     reciprocal axes: (cart. coord. in units 2 pi/alat)
               b(1) = (  1.000000 -0.577351  0.000000 )  
               b(2) = (  0.000000  1.154701  0.000000 )  
               b(3) = (  0.000000  0.000000  0.198219 )  


     PseudoPot. # 1 for Cu read from file:
     /work/gf93/f93007/QE/pseudo/Cu.pbe-dn-kjpaw_psl.1.0.0.UPF
     MD5 check sum: 67c40f9e1593dc2d139023e70404cc2a
     Pseudo is Projector augmented-wave + core cor, Zval = 11.0
     Generated using "atomic" code by A. Dal Corso  v.6.1 svn rev. 13369
     Shape of augmentation charge: PSQ
     Using radial grid of 1199 points,  6 beta functions with: 
                l(1) =   0
                l(2) =   0
                l(3) =   1
                l(4) =   1
                l(5) =   2
                l(6) =   2
     Q(r) pseudized with 0 coefficients 


     PseudoPot. # 2 for  C read from file:
     /work/gf93/f93007/QE/pseudo/C.pbe-n-kjpaw_psl.1.0.0.UPF
     MD5 check sum: 92a742b3ac0ce1af44b5aa3f9352ca21
     Pseudo is Projector augmented-wave + core cor, Zval =  4.0
     Generated using "atomic" code by A. Dal Corso  v.6.1 svn rev. 13369
     Shape of augmentation charge: PSQ
     Using radial grid of 1073 points,  4 beta functions with: 
                l(1) =   0
                l(2) =   0
                l(3) =   1
                l(4) =   1
     Q(r) pseudized with 0 coefficients 


     PseudoPot. # 3 for  O read from file:
     /work/gf93/f93007/QE/pseudo/O.pbe-n-kjpaw_psl.1.0.0.UPF
     MD5 check sum: c61d840054b6bba219e553541e327118
     Pseudo is Projector augmented-wave + core cor, Zval =  6.0
     Generated using "atomic" code by A. Dal Corso  v.6.1 svn rev. 13369
     Shape of augmentation charge: PSQ
     Using radial grid of 1095 points,  4 beta functions with: 
                l(1) =   0
                l(2) =   0
                l(3) =   1
                l(4) =   1
     Q(r) pseudized with 0 coefficients 


     vdW kernel table read from file vdW_kernel_table
     MD5 check sum: 6d69797d2e858e93e031fb7d16d30e50

     atomic species   valence    mass     pseudopotential
        Cu            11.00    63.54600     Cu( 1.00)
        C              4.00    12.01100      C( 1.00)
        O              6.00    15.99900      O( 1.00)

     No symmetry found


                                    s                        frac. trans.

      isym =  1     identity                                     

 cryst.   s( 1) = (     1          0          0      )
                  (     0          1          0      )
                  (     0          0          1      )

 cart.    s( 1) = (  1.0000000  0.0000000  0.0000000 )
                  (  0.0000000  1.0000000  0.0000000 )
                  (  0.0000000  0.0000000  1.0000000 )


   Cartesian axes

     site n.     atom                  positions (alat units)
         1           Cu  tau(   1) = (   0.0000000   0.0000000  -0.8248888  )
         2           Cu  tau(   2) = (   0.3333333   0.0000000  -0.8248888  )
         3           Cu  tau(   3) = (   0.6666667   0.0000000  -0.8248888  )
         4           Cu  tau(   4) = (   0.1666667   0.2886751  -0.8248888  )
         5           Cu  tau(   5) = (   0.5000000   0.2886751  -0.8248888  )
         6           Cu  tau(   6) = (   0.8333333   0.2886751  -0.8248888  )
         7           Cu  tau(   7) = (   0.3333333   0.5773503  -0.8248888  )
         8           Cu  tau(   8) = (   0.6666667   0.5773503  -0.8248888  )
         9           Cu  tau(   9) = (   1.0000000   0.5773503  -0.8248888  )
        10           Cu  tau(  10) = (   0.1679527   0.0969677  -0.5550278  )
        11           Cu  tau(  11) = (   0.5000001   0.0963555  -0.5546924  )
        12           Cu  tau(  12) = (   0.8320475   0.0969677  -0.5550278  )
        13           Cu  tau(  13) = (   0.3334463   0.3848350  -0.5546924  )
        14           Cu  tau(  14) = (   0.6665540   0.3848351  -0.5546924  )
        15           Cu  tau(  15) = (   1.0000000   0.3851225  -0.5554971  )
        16           Cu  tau(  16) = (   0.5000002   0.6720902  -0.5550277  )
        17           Cu  tau(  17) = (   0.8335259   0.6734639  -0.5554970  )
        18           Cu  tau(  18) = (   1.1664742   0.6734639  -0.5554970  )
        19           Cu  tau(  19) = (   0.0000002   0.1919045  -0.2895402  )
        20           Cu  tau(  20) = (   0.3359748   0.1939752  -0.2811846  )
        21           Cu  tau(  21) = (   0.6640256   0.1939752  -0.2811846  )
        22           Cu  tau(  22) = (   0.1667941   0.4810516  -0.2872685  )
        23           Cu  tau(  23) = (   0.5000002   0.4780753  -0.2811846  )
        24           Cu  tau(  24) = (   0.8332061   0.4810517  -0.2872684  )
        25           Cu  tau(  25) = (   0.3338062   0.7700731  -0.2895404  )
        26           Cu  tau(  26) = (   0.6661942   0.7700731  -0.2895403  )
        27           Cu  tau(  27) = (   1.0000001   0.7699472  -0.2872685  )
        28           Cu  tau(  28) = (   0.0000000   0.0000002  -0.0207473  )
        29           Cu  tau(  29) = (   0.3317716  -0.0034666  -0.0198287  )
        30           Cu  tau(  30) = (   0.6682285  -0.0034665  -0.0198288  )
        31           Cu  tau(  31) = (   0.1628835   0.2890560  -0.0198289  )
        32           Cu  tau(  32) = (   0.5000001   0.2886752   0.0000000  )
        33           Cu  tau(  33) = (   0.8371164   0.2890560  -0.0198289  )
        34           Cu  tau(  34) = (   0.3311120   0.5804359  -0.0198289  )
        35           Cu  tau(  35) = (   0.6688881   0.5804359  -0.0198288  )
        36           Cu  tau(  36) = (   1.0000000   0.5773501  -0.0191733  )
        37           C   tau(  37) = (   0.4999994   0.2899360   0.2397149  )
        38           O   tau(  38) = (   0.4999989   0.2886744   0.3848034  )

   Crystallographic axes

     site n.     atom                  positions (cryst. coord.)
         1           Cu  tau(   1) = (  0.0000000  0.0000000 -0.1635089  )
         2           Cu  tau(   2) = (  0.3333333  0.0000000 -0.1635089  )
         3           Cu  tau(   3) = (  0.6666667  0.0000000 -0.1635089  )
         4           Cu  tau(   4) = ( -0.0000001  0.3333335 -0.1635089  )
         5           Cu  tau(   5) = (  0.3333333  0.3333335 -0.1635089  )
         6           Cu  tau(   6) = (  0.6666666  0.3333335 -0.1635089  )
         7           Cu  tau(   7) = ( -0.0000002  0.6666670 -0.1635089  )
         8           Cu  tau(   8) = (  0.3333332  0.6666670 -0.1635089  )
         9           Cu  tau(   9) = (  0.6666665  0.6666670 -0.1635089  )
        10           Cu  tau(  10) = (  0.1119684  0.1119687 -0.1100172  )
        11           Cu  tau(  11) = (  0.4443691  0.1112618 -0.1099508  )
        12           Cu  tau(  12) = (  0.7760631  0.1119687 -0.1100172  )
        13           Cu  tau(  13) = (  0.1112615  0.4443694 -0.1099508  )
        14           Cu  tau(  14) = (  0.4443692  0.4443695 -0.1099507  )
        15           Cu  tau(  15) = (  0.7776494  0.4447013 -0.1101102  )
        16           Cu  tau(  16) = (  0.1119685  0.7760633 -0.1100172  )
        17           Cu  tau(  17) = (  0.4447012  0.7776495 -0.1101102  )
        18           Cu  tau(  18) = (  0.7776494  0.7776495 -0.1101102  )
        19           Cu  tau(  19) = ( -0.1107960  0.2215923 -0.0573925  )
        20           Cu  tau(  20) = (  0.2239831  0.2239834 -0.0557362  )
        21           Cu  tau(  21) = (  0.5520338  0.2239834 -0.0557362  )
        22           Cu  tau(  22) = ( -0.1109413  0.5554709 -0.0569422  )
        23           Cu  tau(  23) = (  0.2239831  0.5520341 -0.0557362  )
        24           Cu  tau(  24) = (  0.5554707  0.5554709 -0.0569421  )
        25           Cu  tau(  25) = ( -0.1107959  0.8892042 -0.0573925  )
        26           Cu  tau(  26) = (  0.2215921  0.8892042 -0.0573925  )
        27           Cu  tau(  27) = (  0.5554707  0.8890589 -0.0569422  )
        28           Cu  tau(  28) = ( -0.0000001  0.0000002 -0.0041125  )
        29           Cu  tau(  29) = (  0.3337730 -0.0040029 -0.0039304  )
        30           Cu  tau(  30) = (  0.6702299 -0.0040028 -0.0039305  )
        31           Cu  tau(  31) = ( -0.0040031  0.3337733 -0.0039305  )
        32           Cu  tau(  32) = (  0.3333333  0.3333336  0.0000000  )
        33           Cu  tau(  33) = (  0.6702298  0.3337733 -0.0039305  )
        34           Cu  tau(  34) = ( -0.0040030  0.6702300 -0.0039305  )
        35           Cu  tau(  35) = (  0.3337731  0.6702300 -0.0039305  )
        36           Cu  tau(  36) = (  0.6666666  0.6666667 -0.0038005  )
        37           C   tau(  37) = (  0.3326047  0.3347894  0.0475161  )
        38           O   tau(  38) = (  0.3333326  0.3333326  0.0762755  )

     number of k points=    34  Marzari-Vanderbilt smearing, width (Ry)=  0.0073
                       cart. coord. in units 2pi/alat
        k(    1) = (   0.0000000   0.0000000   0.0000000), wk =   0.0312500
        k(    2) = (   0.0000000   0.1443376   0.0000000), wk =   0.0625000
        k(    3) = (   0.0000000   0.2886753   0.0000000), wk =   0.0625000
        k(    4) = (   0.0000000   0.4330129   0.0000000), wk =   0.0625000
        k(    5) = (   0.0000000  -0.5773505   0.0000000), wk =   0.0312500
        k(    6) = (   0.1250000  -0.0721688   0.0000000), wk =   0.0625000
        k(    7) = (   0.1250000   0.0721688   0.0000000), wk =   0.0625000
        k(    8) = (   0.1250000   0.2165065   0.0000000), wk =   0.0625000
        k(    9) = (   0.1250000   0.3608441   0.0000000), wk =   0.0625000
        k(   10) = (   0.1250000  -0.6495194   0.0000000), wk =   0.0625000
        k(   11) = (   0.1250000  -0.5051817   0.0000000), wk =   0.0625000
        k(   12) = (   0.1250000  -0.3608441   0.0000000), wk =   0.0625000
        k(   13) = (   0.1250000  -0.2165065   0.0000000), wk =   0.0625000
        k(   14) = (   0.2500000  -0.1443376   0.0000000), wk =   0.0625000
        k(   15) = (   0.2500000   0.0000000   0.0000000), wk =   0.0625000
        k(   16) = (   0.2500000   0.1443376   0.0000000), wk =   0.0625000
        k(   17) = (   0.2500000   0.2886753   0.0000000), wk =   0.0625000
        k(   18) = (   0.2500000  -0.7216882   0.0000000), wk =   0.0625000
        k(   19) = (   0.2500000  -0.5773505   0.0000000), wk =   0.0625000
        k(   20) = (   0.2500000  -0.4330129   0.0000000), wk =   0.0625000
        k(   21) = (   0.2500000  -0.2886753   0.0000000), wk =   0.0625000
        k(   22) = (   0.3750000  -0.2165065   0.0000000), wk =   0.0625000
        k(   23) = (   0.3750000  -0.0721688   0.0000000), wk =   0.0625000
        k(   24) = (   0.3750000   0.0721688   0.0000000), wk =   0.0625000
        k(   25) = (   0.3750000   0.2165065   0.0000000), wk =   0.0625000
        k(   26) = (   0.3750000  -0.7938570   0.0000000), wk =   0.0625000
        k(   27) = (   0.3750000  -0.6495194   0.0000000), wk =   0.0625000
        k(   28) = (   0.3750000  -0.5051817   0.0000000), wk =   0.0625000
        k(   29) = (   0.3750000  -0.3608441   0.0000000), wk =   0.0625000
        k(   30) = (  -0.5000000   0.2886753   0.0000000), wk =   0.0312500
        k(   31) = (  -0.5000000   0.4330129   0.0000000), wk =   0.0625000
        k(   32) = (  -0.5000000   0.5773505   0.0000000), wk =   0.0625000
        k(   33) = (  -0.5000000   0.7216882   0.0000000), wk =   0.0625000
        k(   34) = (  -0.5000000  -0.2886753   0.0000000), wk =   0.0312500

                       cryst. coord.
        k(    1) = (   0.0000000   0.0000000   0.0000000), wk =   0.0312500
        k(    2) = (   0.0000000   0.1250000   0.0000000), wk =   0.0625000
        k(    3) = (   0.0000000   0.2500000   0.0000000), wk =   0.0625000
        k(    4) = (   0.0000000   0.3750000   0.0000000), wk =   0.0625000
        k(    5) = (   0.0000000  -0.5000000   0.0000000), wk =   0.0312500
        k(    6) = (   0.1250000   0.0000000   0.0000000), wk =   0.0625000
        k(    7) = (   0.1250000   0.1250000   0.0000000), wk =   0.0625000
        k(    8) = (   0.1250000   0.2500000   0.0000000), wk =   0.0625000
        k(    9) = (   0.1250000   0.3750000   0.0000000), wk =   0.0625000
        k(   10) = (   0.1250000  -0.5000000   0.0000000), wk =   0.0625000
        k(   11) = (   0.1250000  -0.3750000   0.0000000), wk =   0.0625000
        k(   12) = (   0.1250000  -0.2500000   0.0000000), wk =   0.0625000
        k(   13) = (   0.1250000  -0.1250000   0.0000000), wk =   0.0625000
        k(   14) = (   0.2500000   0.0000000   0.0000000), wk =   0.0625000
        k(   15) = (   0.2500000   0.1250000   0.0000000), wk =   0.0625000
        k(   16) = (   0.2500000   0.2500000   0.0000000), wk =   0.0625000
        k(   17) = (   0.2500000   0.3750000   0.0000000), wk =   0.0625000
        k(   18) = (   0.2500000  -0.5000000   0.0000000), wk =   0.0625000
        k(   19) = (   0.2500000  -0.3750000   0.0000000), wk =   0.0625000
        k(   20) = (   0.2500000  -0.2500000   0.0000000), wk =   0.0625000
        k(   21) = (   0.2500000  -0.1250000   0.0000000), wk =   0.0625000
        k(   22) = (   0.3750000   0.0000000   0.0000000), wk =   0.0625000
        k(   23) = (   0.3750000   0.1250000   0.0000000), wk =   0.0625000
        k(   24) = (   0.3750000   0.2500000   0.0000000), wk =   0.0625000
        k(   25) = (   0.3750000   0.3750000   0.0000000), wk =   0.0625000
        k(   26) = (   0.3750000  -0.5000000   0.0000000), wk =   0.0625000
        k(   27) = (   0.3750000  -0.3750000   0.0000000), wk =   0.0625000
        k(   28) = (   0.3750000  -0.2500000   0.0000000), wk =   0.0625000
        k(   29) = (   0.3750000  -0.1250000   0.0000000), wk =   0.0625000
        k(   30) = (  -0.5000000   0.0000000   0.0000000), wk =   0.0312500
        k(   31) = (  -0.5000000   0.1250000   0.0000000), wk =   0.0625000
        k(   32) = (  -0.5000000   0.2500000   0.0000000), wk =   0.0625000
        k(   33) = (  -0.5000000   0.3750000   0.0000000), wk =   0.0625000
        k(   34) = (  -0.5000000  -0.5000000   0.0000000), wk =   0.0312500

     Dense  grid:  3875677 G-vectors     FFT dimensions: ( 120, 120, 625)

     Smooth grid:   980529 G-vectors     FFT dimensions: (  75,  75, 384)

     Estimated max dynamical RAM per process >     140.99MB

     Estimated total allocated dynamical RAM >   33838.49MB

     Solute:
       # atom     E (kcal/mol)  S (angs)
       1  Cu      1.00000000    3.00000000    given
       2  Cu      1.00000000    3.00000000    given
       3  Cu      1.00000000    3.00000000    given
       4  Cu      1.00000000    3.00000000    given
       5  Cu      1.00000000    3.00000000    given
       6  Cu      1.00000000    3.00000000    given
       7  Cu      1.00000000    3.00000000    given
       8  Cu      1.00000000    3.00000000    given
       9  Cu      1.00000000    3.00000000    given
      10  Cu      1.00000000    3.00000000    given
      11  Cu      1.00000000    3.00000000    given
      12  Cu      1.00000000    3.00000000    given
      13  Cu      1.00000000    3.00000000    given
      14  Cu      1.00000000    3.00000000    given
      15  Cu      1.00000000    3.00000000    given
      16  Cu      1.00000000    3.00000000    given
      17  Cu      1.00000000    3.00000000    given
      18  Cu      1.00000000    3.00000000    given
      19  Cu      1.00000000    3.00000000    given
      20  Cu      1.00000000    3.00000000    given
      21  Cu      1.00000000    3.00000000    given
      22  Cu      1.00000000    3.00000000    given
      23  Cu      1.00000000    3.00000000    given
      24  Cu      1.00000000    3.00000000    given
      25  Cu      1.00000000    3.00000000    given
      26  Cu      1.00000000    3.00000000    given
      27  Cu      1.00000000    3.00000000    given
      28  Cu      1.00000000    3.00000000    given
      29  Cu      1.00000000    3.00000000    given
      30  Cu      1.00000000    3.00000000    given
      31  Cu      1.00000000    3.00000000    given
      32  Cu      1.00000000    3.00000000    given
      33  Cu      1.00000000    3.00000000    given
      34  Cu      1.00000000    3.00000000    given
      35  Cu      1.00000000    3.00000000    given
      36  Cu      1.00000000    3.00000000    given
      37  C       0.07000000    3.55000000    OPLS-AA
      38  O       0.17000000    3.00000000    OPLS-AA

     Wall:
       Density =    0.01000000  bohr^-3
       E       =    0.10000000  kcal/mol
       S       =    4.00000000  angs

     L.J. cutoff radius =       5.0000  S


     Laue-RISM info
     --------------
     closure equation        =           KH
     temperature             =     300.0000  kelvin
     coulomb smearing radius =       2.0000  bohr
     number of solvent sites =            6
     solvent sites           =    O/h2o   H/h2o   L/h2o       K
     solvent sites           =     O/oh    H/oh
     #R-grids in local       =        11250
     #Rz-grids (unit-cell)   =          384
     #Rz-grids (expand-cell) =          720
     #G-grids in local       =         4081
     #Gxy-grids in local     =           17
     #Gxy-shells in local    =           17
     number of iterations    =        10000
     convergence threshold   =      1.0E-06
     convergence level       =       0.8000
     size of MDIIS           =           20
     step of MDIIS           =       0.8000
     solvent cutoff          =     249.8954  Ry
     Custom grid:   980529 G-vectors     FFT dimensions: (  75,  75, 384)

     Boundary Conditions        : Vacuum-Slab-Solvent
     unit-cell (in bohr)        : [ -37.794523  37.794523]
     expand-cell (in bohr)      : [ -37.794523 103.934937]
     solvent of right (in bohr) : [  -8.267552 103.934937]
     buffer  of right (in bohr) : [ -18.109875  -8.267552]
     Gxy = 0 of right (in bohr) : [ -18.109875  82.872365]
     repulsive wall (in bohr)   : [  -Infinity -10.486273]
     reference of potential     : right-hand side
     #grids to fit at edges of unit-cell =    4
     Laue grid:     3865 Gxy-vectors     FFT dimensions: (  75,  75, 720)


     MPI for site:
     number of site groups     =            1
     #procs in a site group    =          240
     this proc in a site group =            0
     the root in a site group  =            0
     this site group           =            0
     inter-site group comm.    =           23
     intra-site group comm.    =            5
     total number of sites     =            6
     starting index of sites   =            1
     ending index of sites     =            6


     MPI for task:
     #procs in a task group    =          240
     this proc in a task group =            0
     the root in a task group  =            0
     task group comm.          =            5


     Initial potential from superposition of free atoms
     Check: negative starting charge=   -0.001648

     starting charge  405.99177, renormalised to  406.00000

     Correlation function is read from file


     negative rho (up, down):  1.648E-03 0.000E+00


     %%%%%%%%%%%%%%%%%%%%%%%%%%%%%%%%%%%%%%%%%%%%%%%%%%%%%%%%%%%%%%%%%%%%%%%%
     %                                                                      %
     % You are using vdW-DF, which was implemented by the Thonhauser group. %
     % Please cite the following two papers that made this development      %
     % possible and the two reviews that describe the various versions:     %
     %                                                                      %
     %   T. Thonhauser et al., PRL 115, 136402 (2015).                      %
     %   T. Thonhauser et al., PRB 76, 125112 (2007).                       %
     %   K. Berland et al., Rep. Prog. Phys. 78, 066501 (2015).             %
     %   D.C. Langreth et al., J. Phys.: Condens. Matter 21, 084203 (2009). %
     %                                                                      %
     %                                                                      %
     % If you are calculating the stress with vdW-DF, please also cite:     %
     %                                                                      %
     %   R. Sabatini et al., J. Phys.: Condens. Matter 24, 424209 (2012).   %
     %                                                                      %
     %%%%%%%%%%%%%%%%%%%%%%%%%%%%%%%%%%%%%%%%%%%%%%%%%%%%%%%%%%%%%%%%%%%%%%%%


     Carrying out vdW-DF run using the following parameters:
     Nqs    =  20  Npoints =  1024  r_max =  100.000
     q_mesh =  0.00001000  0.04494208  0.09755937  0.15916263
               0.23128650  0.31572767  0.41458969  0.53033537
               0.66584808  0.82450364  1.01025438  1.22772762
               1.48234092  1.78043706  2.12944203  2.53805004
               3.01644009  3.57652955  4.23227104  5.00000000


     -----------------------------------------------
     Non-local corr. energy    =      22.28442055 Ry
     -----------------------------------------------


     Laue-RISM Calculation

     convergence threshold    = 6.310E-06
     iter. #     1  RMS(g-h-1)= 6.011E-02  nbox=  0
     iter. #     2  RMS(g-h-1)= 4.571E-02  nbox=  1
     iter. #     3  RMS(g-h-1)= 2.759E-02  nbox=  2
     iter. #     4  RMS(g-h-1)= 1.159E-02  nbox=  3
     iter. #     5  RMS(g-h-1)= 1.009E-02  nbox=  4
     iter. #     6  RMS(g-h-1)= 8.187E-03  nbox=  5
     iter. #     7  RMS(g-h-1)= 6.887E-03  nbox=  6
     iter. #     8  RMS(g-h-1)= 6.118E-03  nbox=  7
     iter. #     9  RMS(g-h-1)= 5.675E-03  nbox=  8
     iter. #    10  RMS(g-h-1)= 5.337E-03  nbox=  9
     iter. #    11  RMS(g-h-1)= 4.990E-03  nbox= 10
     iter. #    12  RMS(g-h-1)= 4.658E-03  nbox= 11
     iter. #    13  RMS(g-h-1)= 4.380E-03  nbox= 12
     iter. #    14  RMS(g-h-1)= 4.173E-03  nbox= 13
     iter. #    15  RMS(g-h-1)= 3.830E-03  nbox= 14
     iter. #    16  RMS(g-h-1)= 3.520E-03  nbox= 15
     iter. #    17  RMS(g-h-1)= 3.185E-03  nbox= 16
     iter. #    18  RMS(g-h-1)= 2.965E-03  nbox= 17
     iter. #    19  RMS(g-h-1)= 2.590E-03  nbox= 18
     iter. #    20  RMS(g-h-1)= 2.313E-03  nbox= 19
     iter. #    21  RMS(g-h-1)= 2.153E-03  nbox= 20
     iter. #    22  RMS(g-h-1)= 1.969E-03  nbox= 20
     iter. #    23  RMS(g-h-1)= 1.808E-03  nbox= 20
     iter. #    24  RMS(g-h-1)= 1.699E-03  nbox= 20
     iter. #    25  RMS(g-h-1)= 1.660E-03  nbox= 20
     iter. #    26  RMS(g-h-1)= 1.568E-03  nbox= 20
     iter. #    27  RMS(g-h-1)= 1.498E-03  nbox= 20
     iter. #    28  RMS(g-h-1)= 1.472E-03  nbox= 20
     iter. #    29  RMS(g-h-1)= 1.410E-03  nbox= 20
     iter. #    30  RMS(g-h-1)= 1.356E-03  nbox= 20
     iter. #    31  RMS(g-h-1)= 1.326E-03  nbox= 20
     iter. #    32  RMS(g-h-1)= 1.272E-03  nbox= 20
     iter. #    33  RMS(g-h-1)= 1.246E-03  nbox= 20
     iter. #    34  RMS(g-h-1)= 1.199E-03  nbox= 20
     iter. #    35  RMS(g-h-1)= 1.166E-03  nbox= 20
     iter. #    36  RMS(g-h-1)= 1.105E-03  nbox= 20
     iter. #    37  RMS(g-h-1)= 1.065E-03  nbox= 20
     iter. #    38  RMS(g-h-1)= 1.050E-03  nbox= 20
     iter. #    39  RMS(g-h-1)= 1.008E-03  nbox= 20
     iter. #    40  RMS(g-h-1)= 9.744E-04  nbox= 20
     iter. #    41  RMS(g-h-1)= 9.604E-04  nbox= 20
     iter. #    42  RMS(g-h-1)= 9.321E-04  nbox= 20
     iter. #    43  RMS(g-h-1)= 9.104E-04  nbox= 20
     iter. #    44  RMS(g-h-1)= 9.059E-04  nbox= 20
     iter. #    45  RMS(g-h-1)= 8.839E-04  nbox= 20
     iter. #    46  RMS(g-h-1)= 8.658E-04  nbox= 20
     iter. #    47  RMS(g-h-1)= 8.608E-04  nbox= 20
     iter. #    48  RMS(g-h-1)= 8.431E-04  nbox= 20
     iter. #    49  RMS(g-h-1)= 8.310E-04  nbox= 20
     iter. #    50  RMS(g-h-1)= 8.273E-04  nbox= 20
     iter. #    51  RMS(g-h-1)= 8.124E-04  nbox= 20
     iter. #    52  RMS(g-h-1)= 7.928E-04  nbox= 20
     iter. #    53  RMS(g-h-1)= 7.915E-04  nbox=  2
     iter. #    54  RMS(g-h-1)= 7.667E-04  nbox=  3
     iter. #    55  RMS(g-h-1)= 7.512E-04  nbox=  4
     iter. #    56  RMS(g-h-1)= 7.365E-04  nbox=  5
     iter. #    57  RMS(g-h-1)= 7.416E-04  nbox=  6
     iter. #    58  RMS(g-h-1)= 7.203E-04  nbox=  7
     iter. #    59  RMS(g-h-1)= 7.112E-04  nbox=  8
     iter. #    60  RMS(g-h-1)= 6.983E-04  nbox=  9
     iter. #    61  RMS(g-h-1)= 6.861E-04  nbox= 10
     iter. #    62  RMS(g-h-1)= 6.799E-04  nbox= 11
     iter. #    63  RMS(g-h-1)= 6.607E-04  nbox= 12
     iter. #    64  RMS(g-h-1)= 6.610E-04  nbox= 13
     iter. #    65  RMS(g-h-1)= 6.460E-04  nbox= 14
     iter. #    66  RMS(g-h-1)= 6.338E-04  nbox= 15
     iter. #    67  RMS(g-h-1)= 6.175E-04  nbox= 16
     iter. #    68  RMS(g-h-1)= 6.090E-04  nbox= 17
     iter. #    69  RMS(g-h-1)= 6.039E-04  nbox=  2
     iter. #    70  RMS(g-h-1)= 5.938E-04  nbox=  3
     iter. #    71  RMS(g-h-1)= 5.845E-04  nbox=  4
     iter. #    72  RMS(g-h-1)= 5.771E-04  nbox=  5
     iter. #    73  RMS(g-h-1)= 5.684E-04  nbox=  6
     iter. #    74  RMS(g-h-1)= 5.610E-04  nbox=  7
     iter. #    75  RMS(g-h-1)= 5.493E-04  nbox=  8
     iter. #    76  RMS(g-h-1)= 5.380E-04  nbox=  9
     iter. #    77  RMS(g-h-1)= 5.345E-04  nbox= 10
     iter. #    78  RMS(g-h-1)= 5.167E-04  nbox= 11
     iter. #    79  RMS(g-h-1)= 5.100E-04  nbox= 12
     iter. #    80  RMS(g-h-1)= 4.910E-04  nbox= 13
     iter. #    81  RMS(g-h-1)= 4.753E-04  nbox= 14
     iter. #    82  RMS(g-h-1)= 4.714E-04  nbox= 15
     iter. #    83  RMS(g-h-1)= 4.571E-04  nbox= 16
     iter. #    84  RMS(g-h-1)= 4.464E-04  nbox= 17
     iter. #    85  RMS(g-h-1)= 4.447E-04  nbox=  2
     iter. #    86  RMS(g-h-1)= 4.355E-04  nbox=  3
     iter. #    87  RMS(g-h-1)= 4.278E-04  nbox=  4
     iter. #    88  RMS(g-h-1)= 4.260E-04  nbox=  5
     iter. #    89  RMS(g-h-1)= 4.187E-04  nbox=  6
     iter. #    90  RMS(g-h-1)= 4.123E-04  nbox=  7
     iter. #    91  RMS(g-h-1)= 4.037E-04  nbox=  8
     iter. #    92  RMS(g-h-1)= 3.959E-04  nbox=  9
     iter. #    93  RMS(g-h-1)= 3.861E-04  nbox= 10
     iter. #    94  RMS(g-h-1)= 3.831E-04  nbox= 11
     iter. #    95  RMS(g-h-1)= 3.722E-04  nbox= 12
     iter. #    96  RMS(g-h-1)= 3.636E-04  nbox= 13
     iter. #    97  RMS(g-h-1)= 3.558E-04  nbox= 14
     iter. #    98  RMS(g-h-1)= 3.538E-04  nbox= 15
     iter. #    99  RMS(g-h-1)= 3.468E-04  nbox= 16
     iter. #   100  RMS(g-h-1)= 3.434E-04  nbox= 17
     iter. #   101  RMS(g-h-1)= 3.420E-04  nbox=  2
     iter. #   102  RMS(g-h-1)= 3.368E-04  nbox=  3
     iter. #   103  RMS(g-h-1)= 3.311E-04  nbox=  4
     iter. #   104  RMS(g-h-1)= 3.252E-04  nbox=  5
     iter. #   105  RMS(g-h-1)= 3.200E-04  nbox=  6
     iter. #   106  RMS(g-h-1)= 3.168E-04  nbox=  7
     iter. #   107  RMS(g-h-1)= 3.103E-04  nbox=  8
     iter. #   108  RMS(g-h-1)= 3.036E-04  nbox=  9
     iter. #   109  RMS(g-h-1)= 2.974E-04  nbox= 10
     iter. #   110  RMS(g-h-1)= 2.942E-04  nbox= 11
     iter. #   111  RMS(g-h-1)= 2.901E-04  nbox= 12
     iter. #   112  RMS(g-h-1)= 2.860E-04  nbox= 13
     iter. #   113  RMS(g-h-1)= 2.821E-04  nbox= 14
     iter. #   114  RMS(g-h-1)= 2.790E-04  nbox= 15
     iter. #   115  RMS(g-h-1)= 2.779E-04  nbox= 16
     iter. #   116  RMS(g-h-1)= 2.755E-04  nbox= 17
     iter. #   117  RMS(g-h-1)= 2.750E-04  nbox=  2
     iter. #   118  RMS(g-h-1)= 2.725E-04  nbox=  3
     iter. #   119  RMS(g-h-1)= 2.704E-04  nbox=  4
     iter. #   120  RMS(g-h-1)= 2.682E-04  nbox=  5
     iter. #   121  RMS(g-h-1)= 2.672E-04  nbox=  6
     iter. #   122  RMS(g-h-1)= 2.650E-04  nbox=  7
     iter. #   123  RMS(g-h-1)= 2.629E-04  nbox=  8
     iter. #   124  RMS(g-h-1)= 2.608E-04  nbox=  9
     iter. #   125  RMS(g-h-1)= 2.588E-04  nbox= 10
     iter. #   126  RMS(g-h-1)= 2.568E-04  nbox= 11
     iter. #   127  RMS(g-h-1)= 2.553E-04  nbox= 12
     iter. #   128  RMS(g-h-1)= 2.540E-04  nbox= 13
     iter. #   129  RMS(g-h-1)= 2.522E-04  nbox= 14
     iter. #   130  RMS(g-h-1)= 2.502E-04  nbox= 15
     iter. #   131  RMS(g-h-1)= 2.482E-04  nbox= 16
     iter. #   132  RMS(g-h-1)= 2.470E-04  nbox= 17
     iter. #   133  RMS(g-h-1)= 2.462E-04  nbox=  2
     iter. #   134  RMS(g-h-1)= 2.449E-04  nbox=  3
     iter. #   135  RMS(g-h-1)= 2.434E-04  nbox=  4
     iter. #   136  RMS(g-h-1)= 2.418E-04  nbox=  5
     iter. #   137  RMS(g-h-1)= 2.405E-04  nbox=  6
     iter. #   138  RMS(g-h-1)= 2.395E-04  nbox=  7
     iter. #   139  RMS(g-h-1)= 2.378E-04  nbox=  8
     iter. #   140  RMS(g-h-1)= 2.356E-04  nbox=  9
     iter. #   141  RMS(g-h-1)= 2.340E-04  nbox= 10
     iter. #   142  RMS(g-h-1)= 2.317E-04  nbox= 11
     iter. #   143  RMS(g-h-1)= 2.333E-04  nbox= 12
     iter. #   144  RMS(g-h-1)= 2.298E-04  nbox= 13
     iter. #   145  RMS(g-h-1)= 2.284E-04  nbox= 14
     iter. #   146  RMS(g-h-1)= 2.276E-04  nbox= 15
     iter. #   147  RMS(g-h-1)= 2.252E-04  nbox= 16
     iter. #   148  RMS(g-h-1)= 2.253E-04  nbox= 17
     iter. #   149  RMS(g-h-1)= 2.251E-04  nbox=  2
     iter. #   150  RMS(g-h-1)= 2.233E-04  nbox=  3
     iter. #   151  RMS(g-h-1)= 2.217E-04  nbox=  4
     iter. #   152  RMS(g-h-1)= 2.202E-04  nbox=  5
     iter. #   153  RMS(g-h-1)= 2.187E-04  nbox=  6
     iter. #   154  RMS(g-h-1)= 2.171E-04  nbox=  7
     iter. #   155  RMS(g-h-1)= 2.165E-04  nbox=  8
     iter. #   156  RMS(g-h-1)= 2.148E-04  nbox=  9
     iter. #   157  RMS(g-h-1)= 2.134E-04  nbox= 10
     iter. #   158  RMS(g-h-1)= 2.120E-04  nbox= 11
     iter. #   159  RMS(g-h-1)= 2.104E-04  nbox= 12
     iter. #   160  RMS(g-h-1)= 2.104E-04  nbox= 13
     iter. #   161  RMS(g-h-1)= 2.085E-04  nbox= 14
     iter. #   162  RMS(g-h-1)= 2.072E-04  nbox= 15
     iter. #   163  RMS(g-h-1)= 2.058E-04  nbox= 16
     iter. #   164  RMS(g-h-1)= 2.048E-04  nbox= 17
     iter. #   165  RMS(g-h-1)= 2.042E-04  nbox=  2
     iter. #   166  RMS(g-h-1)= 2.032E-04  nbox=  3
     iter. #   167  RMS(g-h-1)= 2.020E-04  nbox=  4
     iter. #   168  RMS(g-h-1)= 2.007E-04  nbox=  5
     iter. #   169  RMS(g-h-1)= 1.995E-04  nbox=  6
     iter. #   170  RMS(g-h-1)= 1.987E-04  nbox=  7
     iter. #   171  RMS(g-h-1)= 1.972E-04  nbox=  8
     iter. #   172  RMS(g-h-1)= 1.955E-04  nbox=  9
     iter. #   173  RMS(g-h-1)= 1.934E-04  nbox= 10
     iter. #   174  RMS(g-h-1)= 1.918E-04  nbox= 11
     iter. #   175  RMS(g-h-1)= 1.899E-04  nbox= 12
     iter. #   176  RMS(g-h-1)= 1.904E-04  nbox= 13
     iter. #   177  RMS(g-h-1)= 1.881E-04  nbox= 14
     iter. #   178  RMS(g-h-1)= 1.869E-04  nbox= 15
     iter. #   179  RMS(g-h-1)= 1.860E-04  nbox= 16
     iter. #   180  RMS(g-h-1)= 1.845E-04  nbox= 17
     iter. #   181  RMS(g-h-1)= 1.845E-04  nbox=  2
     iter. #   182  RMS(g-h-1)= 1.828E-04  nbox=  3
     iter. #   183  RMS(g-h-1)= 1.816E-04  nbox=  4
     iter. #   184  RMS(g-h-1)= 1.797E-04  nbox=  5
     iter. #   185  RMS(g-h-1)= 1.803E-04  nbox=  6
     iter. #   186  RMS(g-h-1)= 1.773E-04  nbox=  7
     iter. #   187  RMS(g-h-1)= 1.762E-04  nbox=  8
     iter. #   188  RMS(g-h-1)= 1.747E-04  nbox=  9
     iter. #   189  RMS(g-h-1)= 1.734E-04  nbox= 10
     iter. #   190  RMS(g-h-1)= 1.729E-04  nbox= 11
     iter. #   191  RMS(g-h-1)= 1.714E-04  nbox= 12
     iter. #   192  RMS(g-h-1)= 1.714E-04  nbox= 13
     iter. #   193  RMS(g-h-1)= 1.702E-04  nbox= 14
     iter. #   194  RMS(g-h-1)= 1.694E-04  nbox= 15
     iter. #   195  RMS(g-h-1)= 1.691E-04  nbox= 16
     iter. #   196  RMS(g-h-1)= 1.683E-04  nbox= 17
     iter. #   197  RMS(g-h-1)= 1.710E-04  nbox=  2
     iter. #   198  RMS(g-h-1)= 1.669E-04  nbox=  3
     iter. #   199  RMS(g-h-1)= 1.658E-04  nbox=  4
     iter. #   200  RMS(g-h-1)= 1.645E-04  nbox=  5
     iter. #   201  RMS(g-h-1)= 1.638E-04  nbox=  6
     iter. #   202  RMS(g-h-1)= 1.626E-04  nbox=  7
     iter. #   203  RMS(g-h-1)= 1.611E-04  nbox=  8
     iter. #   204  RMS(g-h-1)= 1.597E-04  nbox=  9
     iter. #   205  RMS(g-h-1)= 1.584E-04  nbox= 10
     iter. #   206  RMS(g-h-1)= 1.571E-04  nbox= 11
     iter. #   207  RMS(g-h-1)= 1.578E-04  nbox= 12
     iter. #   208  RMS(g-h-1)= 1.551E-04  nbox= 13
     iter. #   209  RMS(g-h-1)= 1.545E-04  nbox= 14
     iter. #   210  RMS(g-h-1)= 1.530E-04  nbox= 15
     iter. #   211  RMS(g-h-1)= 1.519E-04  nbox= 16
     iter. #   212  RMS(g-h-1)= 1.543E-04  nbox= 17
     iter. #   213  RMS(g-h-1)= 1.564E-04  nbox=  2
     iter. #   214  RMS(g-h-1)= 1.504E-04  nbox=  3
     iter. #   215  RMS(g-h-1)= 1.493E-04  nbox=  4
     iter. #   216  RMS(g-h-1)= 1.479E-04  nbox=  5
     iter. #   217  RMS(g-h-1)= 1.466E-04  nbox=  6
     iter. #   218  RMS(g-h-1)= 1.457E-04  nbox=  7
     iter. #   219  RMS(g-h-1)= 1.447E-04  nbox=  8
     iter. #   220  RMS(g-h-1)= 1.435E-04  nbox=  9
     iter. #   221  RMS(g-h-1)= 1.418E-04  nbox= 10
     iter. #   222  RMS(g-h-1)= 1.402E-04  nbox= 11
     iter. #   223  RMS(g-h-1)= 1.387E-04  nbox= 12
     iter. #   224  RMS(g-h-1)= 1.377E-04  nbox= 13
     iter. #   225  RMS(g-h-1)= 1.355E-04  nbox= 14
     iter. #   226  RMS(g-h-1)= 1.352E-04  nbox= 15
     iter. #   227  RMS(g-h-1)= 1.333E-04  nbox= 16
     iter. #   228  RMS(g-h-1)= 1.324E-04  nbox= 17
     iter. #   229  RMS(g-h-1)= 1.321E-04  nbox=  2
     iter. #   230  RMS(g-h-1)= 1.305E-04  nbox=  3
     iter. #   231  RMS(g-h-1)= 1.292E-04  nbox=  4
     iter. #   232  RMS(g-h-1)= 1.303E-04  nbox=  5
     iter. #   233  RMS(g-h-1)= 1.263E-04  nbox=  6
     iter. #   234  RMS(g-h-1)= 1.259E-04  nbox=  7
     iter. #   235  RMS(g-h-1)= 1.236E-04  nbox=  8
     iter. #   236  RMS(g-h-1)= 1.220E-04  nbox=  9
     iter. #   237  RMS(g-h-1)= 1.203E-04  nbox= 10
     iter. #   238  RMS(g-h-1)= 1.194E-04  nbox= 11
     iter. #   239  RMS(g-h-1)= 1.179E-04  nbox= 12
     iter. #   240  RMS(g-h-1)= 1.166E-04  nbox= 13
     iter. #   241  RMS(g-h-1)= 1.154E-04  nbox= 14
     iter. #   242  RMS(g-h-1)= 1.140E-04  nbox= 15
     iter. #   243  RMS(g-h-1)= 1.144E-04  nbox= 16
     iter. #   244  RMS(g-h-1)= 1.120E-04  nbox= 17
     iter. #   245  RMS(g-h-1)= 1.118E-04  nbox=  2
     iter. #   246  RMS(g-h-1)= 1.095E-04  nbox=  3
     iter. #   247  RMS(g-h-1)= 1.078E-04  nbox=  4
     iter. #   248  RMS(g-h-1)= 1.066E-04  nbox=  5
     iter. #   249  RMS(g-h-1)= 1.049E-04  nbox=  6
     iter. #   250  RMS(g-h-1)= 1.030E-04  nbox=  7
     iter. #   251  RMS(g-h-1)= 1.009E-04  nbox=  8
     iter. #   252  RMS(g-h-1)= 9.964E-05  nbox=  9
     iter. #   253  RMS(g-h-1)= 9.735E-05  nbox= 10
     iter. #   254  RMS(g-h-1)= 9.781E-05  nbox= 11
     iter. #   255  RMS(g-h-1)= 9.566E-05  nbox= 12
     iter. #   256  RMS(g-h-1)= 9.489E-05  nbox= 13
     iter. #   257  RMS(g-h-1)= 9.340E-05  nbox= 14
     iter. #   258  RMS(g-h-1)= 9.334E-05  nbox= 15
     iter. #   259  RMS(g-h-1)= 9.200E-05  nbox= 16
     iter. #   260  RMS(g-h-1)= 9.083E-05  nbox= 17
     iter. #   261  RMS(g-h-1)= 9.037E-05  nbox=  2
     iter. #   262  RMS(g-h-1)= 8.898E-05  nbox=  3
     iter. #   263  RMS(g-h-1)= 8.744E-05  nbox=  4
     iter. #   264  RMS(g-h-1)= 8.614E-05  nbox=  5
     iter. #   265  RMS(g-h-1)= 8.513E-05  nbox=  6
     iter. #   266  RMS(g-h-1)= 8.399E-05  nbox=  7
     iter. #   267  RMS(g-h-1)= 8.281E-05  nbox=  8
     iter. #   268  RMS(g-h-1)= 8.143E-05  nbox=  9
     iter. #   269  RMS(g-h-1)= 8.121E-05  nbox= 10
     iter. #   270  RMS(g-h-1)= 7.972E-05  nbox= 11
     iter. #   271  RMS(g-h-1)= 7.964E-05  nbox= 12
     iter. #   272  RMS(g-h-1)= 7.853E-05  nbox= 13
     iter. #   273  RMS(g-h-1)= 7.781E-05  nbox= 14
     iter. #   274  RMS(g-h-1)= 7.718E-05  nbox= 15
     iter. #   275  RMS(g-h-1)= 7.646E-05  nbox= 16
     iter. #   276  RMS(g-h-1)= 7.567E-05  nbox= 17
     iter. #   277  RMS(g-h-1)= 7.546E-05  nbox=  2
     iter. #   278  RMS(g-h-1)= 7.453E-05  nbox=  3
     iter. #   279  RMS(g-h-1)= 7.378E-05  nbox=  4
     iter. #   280  RMS(g-h-1)= 7.306E-05  nbox=  5
     iter. #   281  RMS(g-h-1)= 7.253E-05  nbox=  6
     iter. #   282  RMS(g-h-1)= 7.202E-05  nbox=  7
     iter. #   283  RMS(g-h-1)= 7.137E-05  nbox=  8
     iter. #   284  RMS(g-h-1)= 7.063E-05  nbox=  9
     iter. #   285  RMS(g-h-1)= 6.999E-05  nbox= 10
     iter. #   286  RMS(g-h-1)= 6.974E-05  nbox= 11
     iter. #   287  RMS(g-h-1)= 6.873E-05  nbox= 12
     iter. #   288  RMS(g-h-1)= 6.884E-05  nbox= 13
     iter. #   289  RMS(g-h-1)= 6.797E-05  nbox= 14
     iter. #   290  RMS(g-h-1)= 6.751E-05  nbox= 15
     iter. #   291  RMS(g-h-1)= 6.699E-05  nbox= 16
     iter. #   292  RMS(g-h-1)= 6.650E-05  nbox= 17
     iter. #   293  RMS(g-h-1)= 6.641E-05  nbox=  2
     iter. #   294  RMS(g-h-1)= 6.590E-05  nbox=  3
     iter. #   295  RMS(g-h-1)= 6.553E-05  nbox=  4
     iter. #   296  RMS(g-h-1)= 6.521E-05  nbox=  5
     iter. #   297  RMS(g-h-1)= 6.495E-05  nbox=  6
     iter. #   298  RMS(g-h-1)= 6.481E-05  nbox=  7
     iter. #   299  RMS(g-h-1)= 6.452E-05  nbox=  8
     iter. #   300  RMS(g-h-1)= 6.420E-05  nbox=  9
     iter. #   301  RMS(g-h-1)= 6.392E-05  nbox= 10
     iter. #   302  RMS(g-h-1)= 6.364E-05  nbox= 11
     iter. #   303  RMS(g-h-1)= 6.337E-05  nbox= 12
     iter. #   304  RMS(g-h-1)= 6.312E-05  nbox= 13
     iter. #   305  RMS(g-h-1)= 6.296E-05  nbox= 14
     iter. #   306  RMS(g-h-1)= 6.273E-05  nbox= 15
     iter. #   307  RMS(g-h-1)= 6.247E-05  nbox= 16
     iter. #   308  RMS(g-h-1)= 6.221E-05  nbox= 17
     iter. #   309  RMS(g-h-1)= 6.217E-05  nbox=  2
     iter. #   310  RMS(g-h-1)= 6.189E-05  nbox=  3
     iter. #   311  RMS(g-h-1)= 6.163E-05  nbox=  4
     iter. #   312  RMS(g-h-1)= 6.137E-05  nbox=  5
     iter. #   313  RMS(g-h-1)= 6.115E-05  nbox=  6
     iter. #   314  RMS(g-h-1)= 6.093E-05  nbox=  7
     iter. #   315  RMS(g-h-1)= 6.070E-05  nbox=  8
     iter. #   316  RMS(g-h-1)= 6.046E-05  nbox=  9
     iter. #   317  RMS(g-h-1)= 6.022E-05  nbox= 10
     iter. #   318  RMS(g-h-1)= 5.992E-05  nbox= 11
     iter. #   319  RMS(g-h-1)= 6.002E-05  nbox= 12
     iter. #   320  RMS(g-h-1)= 5.944E-05  nbox= 13
     iter. #   321  RMS(g-h-1)= 5.940E-05  nbox= 14
     iter. #   322  RMS(g-h-1)= 5.899E-05  nbox= 15
     iter. #   323  RMS(g-h-1)= 5.865E-05  nbox= 16
     iter. #   324  RMS(g-h-1)= 5.874E-05  nbox= 17
     iter. #   325  RMS(g-h-1)= 5.875E-05  nbox=  2
     iter. #   326  RMS(g-h-1)= 5.828E-05  nbox=  3
     iter. #   327  RMS(g-h-1)= 5.820E-05  nbox=  4
     iter. #   328  RMS(g-h-1)= 5.771E-05  nbox=  5
     iter. #   329  RMS(g-h-1)= 5.786E-05  nbox=  6
     iter. #   330  RMS(g-h-1)= 5.736E-05  nbox=  7
     iter. #   331  RMS(g-h-1)= 5.714E-05  nbox=  8
     iter. #   332  RMS(g-h-1)= 5.692E-05  nbox=  9
     iter. #   333  RMS(g-h-1)= 5.667E-05  nbox= 10
     iter. #   334  RMS(g-h-1)= 5.654E-05  nbox= 11
     iter. #   335  RMS(g-h-1)= 5.630E-05  nbox= 12
     iter. #   336  RMS(g-h-1)= 5.601E-05  nbox= 13
     iter. #   337  RMS(g-h-1)= 5.571E-05  nbox= 14
     iter. #   338  RMS(g-h-1)= 5.538E-05  nbox= 15
     iter. #   339  RMS(g-h-1)= 5.505E-05  nbox= 16
     iter. #   340  RMS(g-h-1)= 5.491E-05  nbox= 17
     iter. #   341  RMS(g-h-1)= 5.479E-05  nbox=  2
     iter. #   342  RMS(g-h-1)= 5.453E-05  nbox=  3
     iter. #   343  RMS(g-h-1)= 5.423E-05  nbox=  4
     iter. #   344  RMS(g-h-1)= 5.396E-05  nbox=  5
     iter. #   345  RMS(g-h-1)= 5.367E-05  nbox=  6
     iter. #   346  RMS(g-h-1)= 5.343E-05  nbox=  7
     iter. #   347  RMS(g-h-1)= 5.322E-05  nbox=  8
     iter. #   348  RMS(g-h-1)= 5.304E-05  nbox=  9
     iter. #   349  RMS(g-h-1)= 5.291E-05  nbox= 10
     iter. #   350  RMS(g-h-1)= 5.267E-05  nbox= 11
     iter. #   351  RMS(g-h-1)= 5.242E-05  nbox= 12
     iter. #   352  RMS(g-h-1)= 5.215E-05  nbox= 13
     iter. #   353  RMS(g-h-1)= 5.196E-05  nbox= 14
     iter. #   354  RMS(g-h-1)= 5.180E-05  nbox= 15
     iter. #   355  RMS(g-h-1)= 5.154E-05  nbox= 16
     iter. #   356  RMS(g-h-1)= 5.129E-05  nbox= 17
     iter. #   357  RMS(g-h-1)= 5.123E-05  nbox=  2
     iter. #   358  RMS(g-h-1)= 5.094E-05  nbox=  3
     iter. #   359  RMS(g-h-1)= 5.066E-05  nbox=  4
     iter. #   360  RMS(g-h-1)= 5.040E-05  nbox=  5
     iter. #   361  RMS(g-h-1)= 5.023E-05  nbox=  6
     iter. #   362  RMS(g-h-1)= 4.999E-05  nbox=  7
     iter. #   363  RMS(g-h-1)= 4.974E-05  nbox=  8
     iter. #   364  RMS(g-h-1)= 4.943E-05  nbox=  9
     iter. #   365  RMS(g-h-1)= 4.921E-05  nbox= 10
     iter. #   366  RMS(g-h-1)= 4.892E-05  nbox= 11
     iter. #   367  RMS(g-h-1)= 4.908E-05  nbox= 12
     iter. #   368  RMS(g-h-1)= 4.853E-05  nbox= 13
     iter. #   369  RMS(g-h-1)= 4.835E-05  nbox= 14
     iter. #   370  RMS(g-h-1)= 4.813E-05  nbox= 15
     iter. #   371  RMS(g-h-1)= 4.797E-05  nbox= 16
     iter. #   372  RMS(g-h-1)= 4.780E-05  nbox= 17
     iter. #   373  RMS(g-h-1)= 4.782E-05  nbox=  2
     iter. #   374  RMS(g-h-1)= 4.765E-05  nbox=  3
     iter. #   375  RMS(g-h-1)= 4.753E-05  nbox=  4
     iter. #   376  RMS(g-h-1)= 4.741E-05  nbox=  5
     iter. #   377  RMS(g-h-1)= 4.734E-05  nbox=  6
     iter. #   378  RMS(g-h-1)= 4.727E-05  nbox=  7
     iter. #   379  RMS(g-h-1)= 4.719E-05  nbox=  8
     iter. #   380  RMS(g-h-1)= 4.711E-05  nbox=  9
     iter. #   381  RMS(g-h-1)= 4.703E-05  nbox= 10
     iter. #   382  RMS(g-h-1)= 4.694E-05  nbox= 11
     iter. #   383  RMS(g-h-1)= 4.686E-05  nbox= 12
     iter. #   384  RMS(g-h-1)= 4.677E-05  nbox= 13
     iter. #   385  RMS(g-h-1)= 4.670E-05  nbox= 14
     iter. #   386  RMS(g-h-1)= 4.662E-05  nbox= 15
     iter. #   387  RMS(g-h-1)= 4.652E-05  nbox= 16
     iter. #   388  RMS(g-h-1)= 4.640E-05  nbox= 17
     iter. #   389  RMS(g-h-1)= 4.640E-05  nbox=  2
     iter. #   390  RMS(g-h-1)= 4.627E-05  nbox=  3
     iter. #   391  RMS(g-h-1)= 4.616E-05  nbox=  4
     iter. #   392  RMS(g-h-1)= 4.603E-05  nbox=  5
     iter. #   393  RMS(g-h-1)= 4.594E-05  nbox=  6
     iter. #   394  RMS(g-h-1)= 4.587E-05  nbox=  7
     iter. #   395  RMS(g-h-1)= 4.578E-05  nbox=  8
     iter. #   396  RMS(g-h-1)= 4.567E-05  nbox=  9
     iter. #   397  RMS(g-h-1)= 4.557E-05  nbox= 10
     iter. #   398  RMS(g-h-1)= 4.548E-05  nbox= 11
     iter. #   399  RMS(g-h-1)= 4.536E-05  nbox= 12
     iter. #   400  RMS(g-h-1)= 4.567E-05  nbox= 13
     iter. #   401  RMS(g-h-1)= 4.517E-05  nbox= 14
     iter. #   402  RMS(g-h-1)= 4.519E-05  nbox= 15
     iter. #   403  RMS(g-h-1)= 4.504E-05  nbox= 16
     iter. #   404  RMS(g-h-1)= 4.491E-05  nbox= 17
     iter. #   405  RMS(g-h-1)= 4.486E-05  nbox=  2
     iter. #   406  RMS(g-h-1)= 4.469E-05  nbox=  3
     iter. #   407  RMS(g-h-1)= 4.452E-05  nbox=  4
     iter. #   408  RMS(g-h-1)= 4.437E-05  nbox=  5
     iter. #   409  RMS(g-h-1)= 4.425E-05  nbox=  6
     iter. #   410  RMS(g-h-1)= 4.418E-05  nbox=  7
     iter. #   411  RMS(g-h-1)= 4.405E-05  nbox=  8
     iter. #   412  RMS(g-h-1)= 4.391E-05  nbox=  9
     iter. #   413  RMS(g-h-1)= 4.379E-05  nbox= 10
     iter. #   414  RMS(g-h-1)= 4.370E-05  nbox= 11
     iter. #   415  RMS(g-h-1)= 4.363E-05  nbox= 12
     iter. #   416  RMS(g-h-1)= 4.353E-05  nbox= 13
     iter. #   417  RMS(g-h-1)= 4.343E-05  nbox= 14
     iter. #   418  RMS(g-h-1)= 4.331E-05  nbox= 15
     iter. #   419  RMS(g-h-1)= 4.318E-05  nbox= 16
     iter. #   420  RMS(g-h-1)= 4.305E-05  nbox= 17
     iter. #   421  RMS(g-h-1)= 4.301E-05  nbox=  2
     iter. #   422  RMS(g-h-1)= 4.286E-05  nbox=  3
     iter. #   423  RMS(g-h-1)= 4.273E-05  nbox=  4
     iter. #   424  RMS(g-h-1)= 4.259E-05  nbox=  5
     iter. #   425  RMS(g-h-1)= 4.247E-05  nbox=  6
     iter. #   426  RMS(g-h-1)= 4.241E-05  nbox=  7
     iter. #   427  RMS(g-h-1)= 4.226E-05  nbox=  8
     iter. #   428  RMS(g-h-1)= 4.214E-05  nbox=  9
     iter. #   429  RMS(g-h-1)= 4.199E-05  nbox= 10
     iter. #   430  RMS(g-h-1)= 4.187E-05  nbox= 11
     iter. #   431  RMS(g-h-1)= 4.184E-05  nbox= 12
     iter. #   432  RMS(g-h-1)= 4.164E-05  nbox= 13
     iter. #   433  RMS(g-h-1)= 4.162E-05  nbox= 14
     iter. #   434  RMS(g-h-1)= 4.149E-05  nbox= 15
     iter. #   435  RMS(g-h-1)= 4.138E-05  nbox= 16
     iter. #   436  RMS(g-h-1)= 4.127E-05  nbox= 17
     iter. #   437  RMS(g-h-1)= 4.125E-05  nbox=  2
     iter. #   438  RMS(g-h-1)= 4.112E-05  nbox=  3
     iter. #   439  RMS(g-h-1)= 4.100E-05  nbox=  4
     iter. #   440  RMS(g-h-1)= 4.085E-05  nbox=  5
     iter. #   441  RMS(g-h-1)= 4.071E-05  nbox=  6
     iter. #   442  RMS(g-h-1)= 4.063E-05  nbox=  7
     iter. #   443  RMS(g-h-1)= 4.048E-05  nbox=  8
     iter. #   444  RMS(g-h-1)= 4.034E-05  nbox=  9
     iter. #   445  RMS(g-h-1)= 4.015E-05  nbox= 10
     iter. #   446  RMS(g-h-1)= 4.003E-05  nbox= 11
     iter. #   447  RMS(g-h-1)= 3.977E-05  nbox= 12
     iter. #   448  RMS(g-h-1)= 3.974E-05  nbox= 13
     iter. #   449  RMS(g-h-1)= 3.952E-05  nbox= 14
     iter. #   450  RMS(g-h-1)= 3.930E-05  nbox= 15
     iter. #   451  RMS(g-h-1)= 3.911E-05  nbox= 16
     iter. #   452  RMS(g-h-1)= 3.894E-05  nbox= 17
     iter. #   453  RMS(g-h-1)= 3.887E-05  nbox=  2
     iter. #   454  RMS(g-h-1)= 3.869E-05  nbox=  3
     iter. #   455  RMS(g-h-1)= 3.850E-05  nbox=  4
     iter. #   456  RMS(g-h-1)= 3.830E-05  nbox=  5
     iter. #   457  RMS(g-h-1)= 3.815E-05  nbox=  6
     iter. #   458  RMS(g-h-1)= 3.805E-05  nbox=  7
     iter. #   459  RMS(g-h-1)= 3.786E-05  nbox=  8
     iter. #   460  RMS(g-h-1)= 3.772E-05  nbox=  9
     iter. #   461  RMS(g-h-1)= 3.754E-05  nbox= 10
     iter. #   462  RMS(g-h-1)= 3.738E-05  nbox= 11
     iter. #   463  RMS(g-h-1)= 3.740E-05  nbox= 12
     iter. #   464  RMS(g-h-1)= 3.715E-05  nbox= 13
     iter. #   465  RMS(g-h-1)= 3.702E-05  nbox= 14
     iter. #   466  RMS(g-h-1)= 3.687E-05  nbox= 15
     iter. #   467  RMS(g-h-1)= 3.674E-05  nbox= 16
     iter. #   468  RMS(g-h-1)= 3.661E-05  nbox= 17
     iter. #   469  RMS(g-h-1)= 3.659E-05  nbox=  2
     iter. #   470  RMS(g-h-1)= 3.644E-05  nbox=  3
     iter. #   471  RMS(g-h-1)= 3.634E-05  nbox=  4
     iter. #   472  RMS(g-h-1)= 3.622E-05  nbox=  5
     iter. #   473  RMS(g-h-1)= 3.615E-05  nbox=  6
     iter. #   474  RMS(g-h-1)= 3.605E-05  nbox=  7
     iter. #   475  RMS(g-h-1)= 3.593E-05  nbox=  8
     iter. #   476  RMS(g-h-1)= 3.580E-05  nbox=  9
     iter. #   477  RMS(g-h-1)= 3.568E-05  nbox= 10
     iter. #   478  RMS(g-h-1)= 3.557E-05  nbox= 11
     iter. #   479  RMS(g-h-1)= 3.543E-05  nbox= 12
     iter. #   480  RMS(g-h-1)= 3.534E-05  nbox= 13
     iter. #   481  RMS(g-h-1)= 3.527E-05  nbox= 14
     iter. #   482  RMS(g-h-1)= 3.515E-05  nbox= 15
     iter. #   483  RMS(g-h-1)= 3.502E-05  nbox= 16
     iter. #   484  RMS(g-h-1)= 3.490E-05  nbox= 17
     iter. #   485  RMS(g-h-1)= 3.487E-05  nbox=  2
     iter. #   486  RMS(g-h-1)= 3.474E-05  nbox=  3
     iter. #   487  RMS(g-h-1)= 3.461E-05  nbox=  4
     iter. #   488  RMS(g-h-1)= 3.449E-05  nbox=  5
     iter. #   489  RMS(g-h-1)= 3.435E-05  nbox=  6
     iter. #   490  RMS(g-h-1)= 3.430E-05  nbox=  7
     iter. #   491  RMS(g-h-1)= 3.416E-05  nbox=  8
     iter. #   492  RMS(g-h-1)= 3.403E-05  nbox=  9
     iter. #   493  RMS(g-h-1)= 3.388E-05  nbox= 10
     iter. #   494  RMS(g-h-1)= 3.376E-05  nbox= 11
     iter. #   495  RMS(g-h-1)= 3.365E-05  nbox= 12
     iter. #   496  RMS(g-h-1)= 3.360E-05  nbox= 13
     iter. #   497  RMS(g-h-1)= 3.350E-05  nbox= 14
     iter. #   498  RMS(g-h-1)= 3.340E-05  nbox= 15
     iter. #   499  RMS(g-h-1)= 3.329E-05  nbox= 16
     iter. #   500  RMS(g-h-1)= 3.317E-05  nbox= 17
     iter. #   501  RMS(g-h-1)= 3.315E-05  nbox=  2
     iter. #   502  RMS(g-h-1)= 3.302E-05  nbox=  3
     iter. #   503  RMS(g-h-1)= 3.290E-05  nbox=  4
     iter. #   504  RMS(g-h-1)= 3.279E-05  nbox=  5
     iter. #   505  RMS(g-h-1)= 3.268E-05  nbox=  6
     iter. #   506  RMS(g-h-1)= 3.263E-05  nbox=  7
     iter. #   507  RMS(g-h-1)= 3.251E-05  nbox=  8
     iter. #   508  RMS(g-h-1)= 3.237E-05  nbox=  9
     iter. #   509  RMS(g-h-1)= 3.220E-05  nbox= 10
     iter. #   510  RMS(g-h-1)= 3.213E-05  nbox= 11
     iter. #   511  RMS(g-h-1)= 3.200E-05  nbox= 12
     iter. #   512  RMS(g-h-1)= 3.190E-05  nbox= 13
     iter. #   513  RMS(g-h-1)= 3.178E-05  nbox= 14
     iter. #   514  RMS(g-h-1)= 3.167E-05  nbox= 15
     iter. #   515  RMS(g-h-1)= 3.156E-05  nbox= 16
     iter. #   516  RMS(g-h-1)= 3.149E-05  nbox= 17
     iter. #   517  RMS(g-h-1)= 3.145E-05  nbox=  2
     iter. #   518  RMS(g-h-1)= 3.137E-05  nbox=  3
     iter. #   519  RMS(g-h-1)= 3.129E-05  nbox=  4
     iter. #   520  RMS(g-h-1)= 3.121E-05  nbox=  5
     iter. #   521  RMS(g-h-1)= 3.113E-05  nbox=  6
     iter. #   522  RMS(g-h-1)= 3.107E-05  nbox=  7
     iter. #   523  RMS(g-h-1)= 3.102E-05  nbox=  8
     iter. #   524  RMS(g-h-1)= 3.095E-05  nbox=  9
     iter. #   525  RMS(g-h-1)= 3.086E-05  nbox= 10
     iter. #   526  RMS(g-h-1)= 3.077E-05  nbox= 11
     iter. #   527  RMS(g-h-1)= 3.070E-05  nbox= 12
     iter. #   528  RMS(g-h-1)= 3.061E-05  nbox= 13
     iter. #   529  RMS(g-h-1)= 3.054E-05  nbox= 14
     iter. #   530  RMS(g-h-1)= 3.049E-05  nbox= 15
     iter. #   531  RMS(g-h-1)= 3.044E-05  nbox= 16
     iter. #   532  RMS(g-h-1)= 3.037E-05  nbox= 17
     iter. #   533  RMS(g-h-1)= 3.036E-05  nbox=  2
     iter. #   534  RMS(g-h-1)= 3.029E-05  nbox=  3
     iter. #   535  RMS(g-h-1)= 3.024E-05  nbox=  4
     iter. #   536  RMS(g-h-1)= 3.019E-05  nbox=  5
     iter. #   537  RMS(g-h-1)= 3.012E-05  nbox=  6
     iter. #   538  RMS(g-h-1)= 3.008E-05  nbox=  7
     iter. #   539  RMS(g-h-1)= 3.004E-05  nbox=  8
     iter. #   540  RMS(g-h-1)= 2.998E-05  nbox=  9
     iter. #   541  RMS(g-h-1)= 2.991E-05  nbox= 10
     iter. #   542  RMS(g-h-1)= 2.982E-05  nbox= 11
     iter. #   543  RMS(g-h-1)= 2.975E-05  nbox= 12
     iter. #   544  RMS(g-h-1)= 2.966E-05  nbox= 13
     iter. #   545  RMS(g-h-1)= 2.956E-05  nbox= 14
     iter. #   546  RMS(g-h-1)= 2.947E-05  nbox= 15
     iter. #   547  RMS(g-h-1)= 2.941E-05  nbox= 16
     iter. #   548  RMS(g-h-1)= 2.934E-05  nbox= 17
     iter. #   549  RMS(g-h-1)= 2.932E-05  nbox=  2
     iter. #   550  RMS(g-h-1)= 2.922E-05  nbox=  3
     iter. #   551  RMS(g-h-1)= 2.914E-05  nbox=  4
     iter. #   552  RMS(g-h-1)= 2.908E-05  nbox=  5
     iter. #   553  RMS(g-h-1)= 2.899E-05  nbox=  6
     iter. #   554  RMS(g-h-1)= 2.893E-05  nbox=  7
     iter. #   555  RMS(g-h-1)= 2.889E-05  nbox=  8
     iter. #   556  RMS(g-h-1)= 2.881E-05  nbox=  9
     iter. #   557  RMS(g-h-1)= 2.872E-05  nbox= 10
     iter. #   558  RMS(g-h-1)= 2.863E-05  nbox= 11
     iter. #   559  RMS(g-h-1)= 2.852E-05  nbox= 12
     iter. #   560  RMS(g-h-1)= 2.842E-05  nbox= 13
     iter. #   561  RMS(g-h-1)= 2.834E-05  nbox= 14
     iter. #   562  RMS(g-h-1)= 2.827E-05  nbox= 15
     iter. #   563  RMS(g-h-1)= 2.818E-05  nbox= 16
     iter. #   564  RMS(g-h-1)= 2.809E-05  nbox= 17
     iter. #   565  RMS(g-h-1)= 2.808E-05  nbox=  2
     iter. #   566  RMS(g-h-1)= 2.799E-05  nbox=  3
     iter. #   567  RMS(g-h-1)= 2.790E-05  nbox=  4
     iter. #   568  RMS(g-h-1)= 2.783E-05  nbox=  5
     iter. #   569  RMS(g-h-1)= 2.776E-05  nbox=  6
     iter. #   570  RMS(g-h-1)= 2.770E-05  nbox=  7
     iter. #   571  RMS(g-h-1)= 2.766E-05  nbox=  8
     iter. #   572  RMS(g-h-1)= 2.758E-05  nbox=  9
     iter. #   573  RMS(g-h-1)= 2.751E-05  nbox= 10
     iter. #   574  RMS(g-h-1)= 2.745E-05  nbox= 11
     iter. #   575  RMS(g-h-1)= 2.737E-05  nbox= 12
     iter. #   576  RMS(g-h-1)= 2.731E-05  nbox= 13
     iter. #   577  RMS(g-h-1)= 2.724E-05  nbox= 14
     iter. #   578  RMS(g-h-1)= 2.719E-05  nbox= 15
     iter. #   579  RMS(g-h-1)= 2.714E-05  nbox= 16
     iter. #   580  RMS(g-h-1)= 2.707E-05  nbox= 17
     iter. #   581  RMS(g-h-1)= 2.706E-05  nbox=  2
     iter. #   582  RMS(g-h-1)= 2.697E-05  nbox=  3
     iter. #   583  RMS(g-h-1)= 2.688E-05  nbox=  4
     iter. #   584  RMS(g-h-1)= 2.680E-05  nbox=  5
     iter. #   585  RMS(g-h-1)= 2.672E-05  nbox=  6
     iter. #   586  RMS(g-h-1)= 2.666E-05  nbox=  7
     iter. #   587  RMS(g-h-1)= 2.660E-05  nbox=  8
     iter. #   588  RMS(g-h-1)= 2.654E-05  nbox=  9
     iter. #   589  RMS(g-h-1)= 2.646E-05  nbox= 10
     iter. #   590  RMS(g-h-1)= 2.638E-05  nbox= 11
     iter. #   591  RMS(g-h-1)= 2.631E-05  nbox= 12
     iter. #   592  RMS(g-h-1)= 2.623E-05  nbox= 13
     iter. #   593  RMS(g-h-1)= 2.614E-05  nbox= 14
     iter. #   594  RMS(g-h-1)= 2.613E-05  nbox= 15
     iter. #   595  RMS(g-h-1)= 2.601E-05  nbox= 16
     iter. #   596  RMS(g-h-1)= 2.592E-05  nbox= 17
     iter. #   597  RMS(g-h-1)= 2.590E-05  nbox=  2
     iter. #   598  RMS(g-h-1)= 2.581E-05  nbox=  3
     iter. #   599  RMS(g-h-1)= 2.571E-05  nbox=  4
     iter. #   600  RMS(g-h-1)= 2.563E-05  nbox=  5
     iter. #   601  RMS(g-h-1)= 2.555E-05  nbox=  6
     iter. #   602  RMS(g-h-1)= 2.549E-05  nbox=  7
     iter. #   603  RMS(g-h-1)= 2.545E-05  nbox=  8
     iter. #   604  RMS(g-h-1)= 2.538E-05  nbox=  9
     iter. #   605  RMS(g-h-1)= 2.529E-05  nbox= 10
     iter. #   606  RMS(g-h-1)= 2.522E-05  nbox= 11
     iter. #   607  RMS(g-h-1)= 2.511E-05  nbox= 12
     iter. #   608  RMS(g-h-1)= 2.510E-05  nbox= 13
     iter. #   609  RMS(g-h-1)= 2.498E-05  nbox= 14
     iter. #   610  RMS(g-h-1)= 2.489E-05  nbox= 15
     iter. #   611  RMS(g-h-1)= 2.479E-05  nbox= 16
     iter. #   612  RMS(g-h-1)= 2.470E-05  nbox= 17
     iter. #   613  RMS(g-h-1)= 2.468E-05  nbox=  2
     iter. #   614  RMS(g-h-1)= 2.459E-05  nbox=  3
     iter. #   615  RMS(g-h-1)= 2.451E-05  nbox=  4
     iter. #   616  RMS(g-h-1)= 2.445E-05  nbox=  5
     iter. #   617  RMS(g-h-1)= 2.439E-05  nbox=  6
     iter. #   618  RMS(g-h-1)= 2.436E-05  nbox=  7
     iter. #   619  RMS(g-h-1)= 2.431E-05  nbox=  8
     iter. #   620  RMS(g-h-1)= 2.426E-05  nbox=  9
     iter. #   621  RMS(g-h-1)= 2.420E-05  nbox= 10
     iter. #   622  RMS(g-h-1)= 2.415E-05  nbox= 11
     iter. #   623  RMS(g-h-1)= 2.407E-05  nbox= 12
     iter. #   624  RMS(g-h-1)= 2.400E-05  nbox= 13
     iter. #   625  RMS(g-h-1)= 2.393E-05  nbox= 14
     iter. #   626  RMS(g-h-1)= 2.390E-05  nbox= 15
     iter. #   627  RMS(g-h-1)= 2.382E-05  nbox= 16
     iter. #   628  RMS(g-h-1)= 2.375E-05  nbox= 17
     iter. #   629  RMS(g-h-1)= 2.374E-05  nbox=  2
     iter. #   630  RMS(g-h-1)= 2.366E-05  nbox=  3
     iter. #   631  RMS(g-h-1)= 2.360E-05  nbox=  4
     iter. #   632  RMS(g-h-1)= 2.354E-05  nbox=  5
     iter. #   633  RMS(g-h-1)= 2.349E-05  nbox=  6
     iter. #   634  RMS(g-h-1)= 2.346E-05  nbox=  7
     iter. #   635  RMS(g-h-1)= 2.341E-05  nbox=  8
     iter. #   636  RMS(g-h-1)= 2.335E-05  nbox=  9
     iter. #   637  RMS(g-h-1)= 2.329E-05  nbox= 10
     iter. #   638  RMS(g-h-1)= 2.323E-05  nbox= 11
     iter. #   639  RMS(g-h-1)= 2.317E-05  nbox= 12
     iter. #   640  RMS(g-h-1)= 2.310E-05  nbox= 13
     iter. #   641  RMS(g-h-1)= 2.311E-05  nbox= 14
     iter. #   642  RMS(g-h-1)= 2.301E-05  nbox= 15
     iter. #   643  RMS(g-h-1)= 2.296E-05  nbox= 16
     iter. #   644  RMS(g-h-1)= 2.288E-05  nbox= 17
     iter. #   645  RMS(g-h-1)= 2.287E-05  nbox=  2
     iter. #   646  RMS(g-h-1)= 2.280E-05  nbox=  3
     iter. #   647  RMS(g-h-1)= 2.272E-05  nbox=  4
     iter. #   648  RMS(g-h-1)= 2.265E-05  nbox=  5
     iter. #   649  RMS(g-h-1)= 2.257E-05  nbox=  6
     iter. #   650  RMS(g-h-1)= 2.252E-05  nbox=  7
     iter. #   651  RMS(g-h-1)= 2.246E-05  nbox=  8
     iter. #   652  RMS(g-h-1)= 2.238E-05  nbox=  9
     iter. #   653  RMS(g-h-1)= 2.231E-05  nbox= 10
     iter. #   654  RMS(g-h-1)= 2.227E-05  nbox= 11
     iter. #   655  RMS(g-h-1)= 2.218E-05  nbox= 12
     iter. #   656  RMS(g-h-1)= 2.217E-05  nbox= 13
     iter. #   657  RMS(g-h-1)= 2.209E-05  nbox= 14
     iter. #   658  RMS(g-h-1)= 2.202E-05  nbox= 15
     iter. #   659  RMS(g-h-1)= 2.195E-05  nbox= 16
     iter. #   660  RMS(g-h-1)= 2.186E-05  nbox= 17
     iter. #   661  RMS(g-h-1)= 2.184E-05  nbox=  2
     iter. #   662  RMS(g-h-1)= 2.173E-05  nbox=  3
     iter. #   663  RMS(g-h-1)= 2.163E-05  nbox=  4
     iter. #   664  RMS(g-h-1)= 2.153E-05  nbox=  5
     iter. #   665  RMS(g-h-1)= 2.143E-05  nbox=  6
     iter. #   666  RMS(g-h-1)= 2.134E-05  nbox=  7
     iter. #   667  RMS(g-h-1)= 2.127E-05  nbox=  8
     iter. #   668  RMS(g-h-1)= 2.116E-05  nbox=  9
     iter. #   669  RMS(g-h-1)= 2.105E-05  nbox= 10
     iter. #   670  RMS(g-h-1)= 2.095E-05  nbox= 11
     iter. #   671  RMS(g-h-1)= 2.082E-05  nbox= 12
     iter. #   672  RMS(g-h-1)= 2.071E-05  nbox= 13
     iter. #   673  RMS(g-h-1)= 2.059E-05  nbox= 14
     iter. #   674  RMS(g-h-1)= 2.052E-05  nbox= 15
     iter. #   675  RMS(g-h-1)= 2.040E-05  nbox= 16
     iter. #   676  RMS(g-h-1)= 2.024E-05  nbox= 17
     iter. #   677  RMS(g-h-1)= 2.021E-05  nbox=  2
     iter. #   678  RMS(g-h-1)= 2.006E-05  nbox=  3
     iter. #   679  RMS(g-h-1)= 1.991E-05  nbox=  4
     iter. #   680  RMS(g-h-1)= 1.977E-05  nbox=  5
     iter. #   681  RMS(g-h-1)= 1.961E-05  nbox=  6
     iter. #   682  RMS(g-h-1)= 1.953E-05  nbox=  7
     iter. #   683  RMS(g-h-1)= 1.942E-05  nbox=  8
     iter. #   684  RMS(g-h-1)= 1.927E-05  nbox=  9
     iter. #   685  RMS(g-h-1)= 1.913E-05  nbox= 10
     iter. #   686  RMS(g-h-1)= 1.900E-05  nbox= 11
     iter. #   687  RMS(g-h-1)= 1.888E-05  nbox= 12
     iter. #   688  RMS(g-h-1)= 1.879E-05  nbox= 13
     iter. #   689  RMS(g-h-1)= 1.871E-05  nbox= 14
     iter. #   690  RMS(g-h-1)= 1.859E-05  nbox= 15
     iter. #   691  RMS(g-h-1)= 1.849E-05  nbox= 16
     iter. #   692  RMS(g-h-1)= 1.838E-05  nbox= 17
     iter. #   693  RMS(g-h-1)= 1.836E-05  nbox=  2
     iter. #   694  RMS(g-h-1)= 1.823E-05  nbox=  3
     iter. #   695  RMS(g-h-1)= 1.812E-05  nbox=  4
     iter. #   696  RMS(g-h-1)= 1.801E-05  nbox=  5
     iter. #   697  RMS(g-h-1)= 1.791E-05  nbox=  6
     iter. #   698  RMS(g-h-1)= 1.790E-05  nbox=  7
     iter. #   699  RMS(g-h-1)= 1.776E-05  nbox=  8
     iter. #   700  RMS(g-h-1)= 1.768E-05  nbox=  9
     iter. #   701  RMS(g-h-1)= 1.758E-05  nbox= 10
     iter. #   702  RMS(g-h-1)= 1.750E-05  nbox= 11
     iter. #   703  RMS(g-h-1)= 1.741E-05  nbox= 12
     iter. #   704  RMS(g-h-1)= 1.733E-05  nbox= 13
     iter. #   705  RMS(g-h-1)= 1.727E-05  nbox= 14
     iter. #   706  RMS(g-h-1)= 1.721E-05  nbox= 15
     iter. #   707  RMS(g-h-1)= 1.712E-05  nbox= 16
     iter. #   708  RMS(g-h-1)= 1.704E-05  nbox= 17
     iter. #   709  RMS(g-h-1)= 1.702E-05  nbox=  2
     iter. #   710  RMS(g-h-1)= 1.691E-05  nbox=  3
     iter. #   711  RMS(g-h-1)= 1.681E-05  nbox=  4
     iter. #   712  RMS(g-h-1)= 1.671E-05  nbox=  5
     iter. #   713  RMS(g-h-1)= 1.659E-05  nbox=  6
     iter. #   714  RMS(g-h-1)= 1.656E-05  nbox=  7
     iter. #   715  RMS(g-h-1)= 1.645E-05  nbox=  8
     iter. #   716  RMS(g-h-1)= 1.635E-05  nbox=  9
     iter. #   717  RMS(g-h-1)= 1.624E-05  nbox= 10
     iter. #   718  RMS(g-h-1)= 1.615E-05  nbox= 11
     iter. #   719  RMS(g-h-1)= 1.606E-05  nbox= 12
     iter. #   720  RMS(g-h-1)= 1.597E-05  nbox= 13
     iter. #   721  RMS(g-h-1)= 1.592E-05  nbox= 14
     iter. #   722  RMS(g-h-1)= 1.585E-05  nbox= 15
     iter. #   723  RMS(g-h-1)= 1.576E-05  nbox= 16
     iter. #   724  RMS(g-h-1)= 1.567E-05  nbox= 17
     iter. #   725  RMS(g-h-1)= 1.566E-05  nbox=  2
     iter. #   726  RMS(g-h-1)= 1.556E-05  nbox=  3
     iter. #   727  RMS(g-h-1)= 1.548E-05  nbox=  4
     iter. #   728  RMS(g-h-1)= 1.540E-05  nbox=  5
     iter. #   729  RMS(g-h-1)= 1.533E-05  nbox=  6
     iter. #   730  RMS(g-h-1)= 1.529E-05  nbox=  7
     iter. #   731  RMS(g-h-1)= 1.521E-05  nbox=  8
     iter. #   732  RMS(g-h-1)= 1.511E-05  nbox=  9
     iter. #   733  RMS(g-h-1)= 1.502E-05  nbox= 10
     iter. #   734  RMS(g-h-1)= 1.493E-05  nbox= 11
     iter. #   735  RMS(g-h-1)= 1.484E-05  nbox= 12
     iter. #   736  RMS(g-h-1)= 1.473E-05  nbox= 13
     iter. #   737  RMS(g-h-1)= 1.466E-05  nbox= 14
     iter. #   738  RMS(g-h-1)= 1.460E-05  nbox= 15
     iter. #   739  RMS(g-h-1)= 1.450E-05  nbox= 16
     iter. #   740  RMS(g-h-1)= 1.441E-05  nbox= 17
     iter. #   741  RMS(g-h-1)= 1.440E-05  nbox=  2
     iter. #   742  RMS(g-h-1)= 1.428E-05  nbox=  3
     iter. #   743  RMS(g-h-1)= 1.419E-05  nbox=  4
     iter. #   744  RMS(g-h-1)= 1.409E-05  nbox=  5
     iter. #   745  RMS(g-h-1)= 1.399E-05  nbox=  6
     iter. #   746  RMS(g-h-1)= 1.394E-05  nbox=  7
     iter. #   747  RMS(g-h-1)= 1.383E-05  nbox=  8
     iter. #   748  RMS(g-h-1)= 1.371E-05  nbox=  9
     iter. #   749  RMS(g-h-1)= 1.362E-05  nbox= 10
     iter. #   750  RMS(g-h-1)= 1.352E-05  nbox= 11
     iter. #   751  RMS(g-h-1)= 1.343E-05  nbox= 12
     iter. #   752  RMS(g-h-1)= 1.333E-05  nbox= 13
     iter. #   753  RMS(g-h-1)= 1.327E-05  nbox= 14
     iter. #   754  RMS(g-h-1)= 1.320E-05  nbox= 15
     iter. #   755  RMS(g-h-1)= 1.312E-05  nbox= 16
     iter. #   756  RMS(g-h-1)= 1.302E-05  nbox= 17
     iter. #   757  RMS(g-h-1)= 1.300E-05  nbox=  2
     iter. #   758  RMS(g-h-1)= 1.288E-05  nbox=  3
     iter. #   759  RMS(g-h-1)= 1.280E-05  nbox=  4
     iter. #   760  RMS(g-h-1)= 1.271E-05  nbox=  5
     iter. #   761  RMS(g-h-1)= 1.263E-05  nbox=  6
     iter. #   762  RMS(g-h-1)= 1.260E-05  nbox=  7
     iter. #   763  RMS(g-h-1)= 1.251E-05  nbox=  8
     iter. #   764  RMS(g-h-1)= 1.244E-05  nbox=  9
     iter. #   765  RMS(g-h-1)= 1.235E-05  nbox= 10
     iter. #   766  RMS(g-h-1)= 1.227E-05  nbox= 11
     iter. #   767  RMS(g-h-1)= 1.218E-05  nbox= 12
     iter. #   768  RMS(g-h-1)= 1.210E-05  nbox= 13
     iter. #   769  RMS(g-h-1)= 1.202E-05  nbox= 14
     iter. #   770  RMS(g-h-1)= 1.196E-05  nbox= 15
     iter. #   771  RMS(g-h-1)= 1.187E-05  nbox= 16
     iter. #   772  RMS(g-h-1)= 1.178E-05  nbox= 17
     iter. #   773  RMS(g-h-1)= 1.176E-05  nbox=  2
     iter. #   774  RMS(g-h-1)= 1.167E-05  nbox=  3
     iter. #   775  RMS(g-h-1)= 1.157E-05  nbox=  4
     iter. #   776  RMS(g-h-1)= 1.148E-05  nbox=  5
     iter. #   777  RMS(g-h-1)= 1.138E-05  nbox=  6
     iter. #   778  RMS(g-h-1)= 1.135E-05  nbox=  7
     iter. #   779  RMS(g-h-1)= 1.124E-05  nbox=  8
     iter. #   780  RMS(g-h-1)= 1.114E-05  nbox=  9
     iter. #   781  RMS(g-h-1)= 1.104E-05  nbox= 10
     iter. #   782  RMS(g-h-1)= 1.094E-05  nbox= 11
     iter. #   783  RMS(g-h-1)= 1.086E-05  nbox= 12
     iter. #   784  RMS(g-h-1)= 1.079E-05  nbox= 13
     iter. #   785  RMS(g-h-1)= 1.071E-05  nbox= 14
     iter. #   786  RMS(g-h-1)= 1.067E-05  nbox= 15
     iter. #   787  RMS(g-h-1)= 1.060E-05  nbox= 16
     iter. #   788  RMS(g-h-1)= 1.052E-05  nbox= 17
     iter. #   789  RMS(g-h-1)= 1.051E-05  nbox=  2
     iter. #   790  RMS(g-h-1)= 1.043E-05  nbox=  3
     iter. #   791  RMS(g-h-1)= 1.035E-05  nbox=  4
     iter. #   792  RMS(g-h-1)= 1.029E-05  nbox=  5
     iter. #   793  RMS(g-h-1)= 1.022E-05  nbox=  6
     iter. #   794  RMS(g-h-1)= 1.020E-05  nbox=  7
     iter. #   795  RMS(g-h-1)= 1.013E-05  nbox=  8
     iter. #   796  RMS(g-h-1)= 1.007E-05  nbox=  9
     iter. #   797  RMS(g-h-1)= 1.001E-05  nbox= 10
     iter. #   798  RMS(g-h-1)= 9.960E-06  nbox= 11
     iter. #   799  RMS(g-h-1)= 9.905E-06  nbox= 12
     iter. #   800  RMS(g-h-1)= 9.856E-06  nbox= 13
     iter. #   801  RMS(g-h-1)= 9.809E-06  nbox= 14
     iter. #   802  RMS(g-h-1)= 9.787E-06  nbox= 15
     iter. #   803  RMS(g-h-1)= 9.744E-06  nbox= 16
     iter. #   804  RMS(g-h-1)= 9.693E-06  nbox= 17
     iter. #   805  RMS(g-h-1)= 9.679E-06  nbox=  2
     iter. #   806  RMS(g-h-1)= 9.631E-06  nbox=  3
     iter. #   807  RMS(g-h-1)= 9.578E-06  nbox=  4
     iter. #   808  RMS(g-h-1)= 9.535E-06  nbox=  5
     iter. #   809  RMS(g-h-1)= 9.481E-06  nbox=  6
     iter. #   810  RMS(g-h-1)= 9.475E-06  nbox=  7
     iter. #   811  RMS(g-h-1)= 9.423E-06  nbox=  8
     iter. #   812  RMS(g-h-1)= 9.379E-06  nbox=  9
     iter. #   813  RMS(g-h-1)= 9.336E-06  nbox= 10
     iter. #   814  RMS(g-h-1)= 9.300E-06  nbox= 11
     iter. #   815  RMS(g-h-1)= 9.256E-06  nbox= 12
     iter. #   816  RMS(g-h-1)= 9.218E-06  nbox= 13
     iter. #   817  RMS(g-h-1)= 9.192E-06  nbox= 14
     iter. #   818  RMS(g-h-1)= 9.160E-06  nbox= 15
     iter. #   819  RMS(g-h-1)= 9.120E-06  nbox= 16
     iter. #   820  RMS(g-h-1)= 9.080E-06  nbox= 17
     iter. #   821  RMS(g-h-1)= 9.070E-06  nbox=  2
     iter. #   822  RMS(g-h-1)= 9.026E-06  nbox=  3
     iter. #   823  RMS(g-h-1)= 8.987E-06  nbox=  4
     iter. #   824  RMS(g-h-1)= 8.948E-06  nbox=  5
     iter. #   825  RMS(g-h-1)= 8.921E-06  nbox=  6
     iter. #   826  RMS(g-h-1)= 8.890E-06  nbox=  7
     iter. #   827  RMS(g-h-1)= 8.856E-06  nbox=  8
     iter. #   828  RMS(g-h-1)= 8.819E-06  nbox=  9
     iter. #   829  RMS(g-h-1)= 8.769E-06  nbox= 10
     iter. #   830  RMS(g-h-1)= 8.729E-06  nbox= 11
     iter. #   831  RMS(g-h-1)= 8.667E-06  nbox= 12
     iter. #   832  RMS(g-h-1)= 8.621E-06  nbox= 13
     iter. #   833  RMS(g-h-1)= 8.595E-06  nbox= 14
     iter. #   834  RMS(g-h-1)= 8.540E-06  nbox= 15
     iter. #   835  RMS(g-h-1)= 8.483E-06  nbox= 16
     iter. #   836  RMS(g-h-1)= 8.431E-06  nbox= 17
     iter. #   837  RMS(g-h-1)= 8.419E-06  nbox=  2
     iter. #   838  RMS(g-h-1)= 8.361E-06  nbox=  3
     iter. #   839  RMS(g-h-1)= 8.309E-06  nbox=  4
     iter. #   840  RMS(g-h-1)= 8.316E-06  nbox=  5
     iter. #   841  RMS(g-h-1)= 8.194E-06  nbox=  6
     iter. #   842  RMS(g-h-1)= 8.204E-06  nbox=  7
     iter. #   843  RMS(g-h-1)= 8.122E-06  nbox=  8
     iter. #   844  RMS(g-h-1)= 8.065E-06  nbox=  9
     iter. #   845  RMS(g-h-1)= 7.999E-06  nbox= 10
     iter. #   846  RMS(g-h-1)= 7.943E-06  nbox= 11
     iter. #   847  RMS(g-h-1)= 7.875E-06  nbox= 12
     iter. #   848  RMS(g-h-1)= 7.874E-06  nbox= 13
     iter. #   849  RMS(g-h-1)= 7.795E-06  nbox= 14
     iter. #   850  RMS(g-h-1)= 7.739E-06  nbox= 15
     iter. #   851  RMS(g-h-1)= 7.666E-06  nbox= 16
     iter. #   852  RMS(g-h-1)= 7.608E-06  nbox= 17
     iter. #   853  RMS(g-h-1)= 7.584E-06  nbox=  2
     iter. #   854  RMS(g-h-1)= 7.507E-06  nbox=  3
     iter. #   855  RMS(g-h-1)= 7.450E-06  nbox=  4
     iter. #   856  RMS(g-h-1)= 7.371E-06  nbox=  5
     iter. #   857  RMS(g-h-1)= 7.442E-06  nbox=  6
     iter. #   858  RMS(g-h-1)= 7.281E-06  nbox=  7
     iter. #   859  RMS(g-h-1)= 7.235E-06  nbox=  8
     iter. #   860  RMS(g-h-1)= 7.175E-06  nbox=  9
     iter. #   861  RMS(g-h-1)= 7.109E-06  nbox= 10
     iter. #   862  RMS(g-h-1)= 7.103E-06  nbox= 11
     iter. #   863  RMS(g-h-1)= 7.043E-06  nbox= 12
     iter. #   864  RMS(g-h-1)= 7.000E-06  nbox= 13
     iter. #   865  RMS(g-h-1)= 6.944E-06  nbox= 14
     iter. #   866  RMS(g-h-1)= 6.907E-06  nbox= 15
     iter. #   867  RMS(g-h-1)= 6.853E-06  nbox= 16
     iter. #   868  RMS(g-h-1)= 6.821E-06  nbox= 17
     iter. #   869  RMS(g-h-1)= 6.802E-06  nbox=  2
     iter. #   870  RMS(g-h-1)= 6.760E-06  nbox=  3
     iter. #   871  RMS(g-h-1)= 6.719E-06  nbox=  4
     iter. #   872  RMS(g-h-1)= 6.684E-06  nbox=  5
     iter. #   873  RMS(g-h-1)= 6.643E-06  nbox=  6
     iter. #   874  RMS(g-h-1)= 6.613E-06  nbox=  7
     iter. #   875  RMS(g-h-1)= 6.594E-06  nbox=  8
     iter. #   876  RMS(g-h-1)= 6.560E-06  nbox=  9
     iter. #   877  RMS(g-h-1)= 6.528E-06  nbox= 10
     iter. #   878  RMS(g-h-1)= 6.499E-06  nbox= 11
     iter. #   879  RMS(g-h-1)= 6.473E-06  nbox= 12
     iter. #   880  RMS(g-h-1)= 6.445E-06  nbox= 13
     iter. #   881  RMS(g-h-1)= 6.419E-06  nbox= 14
     iter. #   882  RMS(g-h-1)= 6.400E-06  nbox= 15
     iter. #   883  RMS(g-h-1)= 6.382E-06  nbox= 16
     iter. #   884  RMS(g-h-1)= 6.354E-06  nbox= 17
     iter. #   885  RMS(g-h-1)= 6.351E-06  nbox=  2
     iter. #   886  RMS(g-h-1)= 6.321E-06  nbox=  3
     iter. #   887  RMS(g-h-1)= 6.298E-06  nbox=  4

     End of Laue-RISM calculation


     convergence has been achieved in   887 iterations


     solvent charge    0.00229, renormalised to    0.00000

     Total number of solvent (in expand-cell)
     H2O           97.476352
     K+             1.612307
     OH-            1.611680

     Total charge of solvent (in expand-cell)
     H2O            0.000183 e
     K+             1.612307 e
     OH-           -1.610203 e
     Total          0.002288 e

     Chemical potential of solvation (in expand-cell)
     H2O        GaussFluct   0.135919E+01 kcal/mol
     K+         GaussFluct   0.187952E+01 kcal/mol
     OH-        GaussFluct  -0.125704E+01 kcal/mol
     Total      GaussFluct   0.198167E+01 kcal/mol

     Starting wfc are  332 randomized atomic wfcs
     Checking if some PAW data can be deallocated... 
       node    0, deallocated PAW data for type:  2
       node    0, deallocated PAW data for type:  3
       node    1, deallocated PAW data for type:  2
       node    1, deallocated PAW data for type:  3
       node    2, deallocated PAW data for type:  2
       node    2, deallocated PAW data for type:  3
       node    3, deallocated PAW data for type:  2
[...]
     atom   19 type  1   force =    -0.00000532   -0.04969161   61.63620263
     atom   20 type  1   force =    -0.21001587   -0.12276832   65.56507575
     atom   21 type  1   force =     0.21001502   -0.12279108   65.56504746
     atom   22 type  1   force =     0.01492586   -0.00892245   62.69748360
     atom   23 type  1   force =    -0.00001652    0.24245768   65.56176102
     atom   24 type  1   force =    -0.01491292   -0.00893094   62.69752278
     atom   25 type  1   force =     0.04202190    0.02572774   61.63578350
     atom   26 type  1   force =    -0.04204139    0.02572989   61.63584570
     atom   27 type  1   force =     0.00001643    0.01896006   62.69947359
     atom   28 type  1   force =    -0.00000237    0.00313079  203.68840930
     atom   29 type  1   force =    -0.59068849   -0.74823521  202.93906644
     atom   30 type  1   force =     0.59069128   -0.74824560  202.93902584
     atom   31 type  1   force =    -0.95071186   -0.14400555  202.93219934
     atom   32 type  1   force =     0.00001058   -0.03355427  203.56282253
     atom   33 type  1   force =     0.95071906   -0.14401522  202.93222881
     atom   34 type  1   force =    -0.36008044    0.89845470  202.92531303
     atom   35 type  1   force =     0.36006662    0.89845563  202.92536862
     atom   36 type  1   force =     0.00001782    0.00316203  204.43256257
     atom   37 type  2   force =     0.00002395    0.10198062   93.27925935
     atom   38 type  3   force =    -0.00003677   -0.08690237  164.32228699
     The local contribution  to forces
     atom    1 type  1   force =     0.00000324   -0.00007783  217.60713032
     atom    2 type  1   force =     0.02324671   -0.02513899  217.76111753
     atom    3 type  1   force =    -0.02325182   -0.02513743  217.76111325
     atom    4 type  1   force =    -0.01013700    0.03257735  217.76105708
     atom    5 type  1   force =    -0.00000125   -0.00018086  217.72428527
     atom    6 type  1   force =     0.01013681    0.03258109  217.76106205
     atom    7 type  1   force =    -0.03337427   -0.00738366  217.76106935
     atom    8 type  1   force =     0.03337633   -0.00738052  217.76108030
     atom    9 type  1   force =    -0.00000428    0.00011222  217.84869275
     atom   10 type  1   force =     0.02243674    0.01302163   77.50390389
     atom   11 type  1   force =    -0.00000747   -0.16347843   77.20012479
     atom   12 type  1   force =    -0.02242824    0.01304149   77.50391142
     atom   13 type  1   force =    -0.14166353    0.08193073   77.20050259
     atom   14 type  1   force =     0.14167597    0.08194854   77.20049200
     atom   15 type  1   force =    -0.00001252    0.09689005   77.81446201
     atom   16 type  1   force =     0.00002321   -0.02612203   77.50442429
     atom   17 type  1   force =     0.08372489   -0.04862874   77.81431497
     atom   18 type  1   force =    -0.08374692   -0.04862495   77.81432733
     atom   19 type  1   force =     0.00000540    0.04488501  -61.66077489
     atom   20 type  1   force =     0.22334453    0.13060062  -65.56807511
     atom   21 type  1   force =    -0.22334387    0.13062329  -65.56804695
     atom   22 type  1   force =    -0.02275953    0.01348419  -62.72605357
     atom   23 type  1   force =     0.00001630   -0.25790687  -65.56453498
     atom   24 type  1   force =     0.02274673    0.01349272  -62.72609291
     atom   25 type  1   force =    -0.03795635   -0.02329049  -61.66043458
     atom   26 type  1   force =     0.03797573   -0.02329244  -61.66049690
     atom   27 type  1   force =    -0.00001642   -0.02825412  -62.72799505
     atom   28 type  1   force =     0.00000192   -0.00311005 -203.71949040
     atom   29 type  1   force =     0.57259409    0.71828470 -203.01913071
     atom   30 type  1   force =    -0.57259644    0.71829487 -203.01908907
     atom   31 type  1   force =     0.91477899    0.14297468 -203.01299554
     atom   32 type  1   force =    -0.00001071    0.03178585 -203.59087683
     atom   33 type  1   force =    -0.91478627    0.14298381 -203.01302539
     atom   34 type  1   force =     0.34220135   -0.86617280 -203.00684364
     atom   35 type  1   force =    -0.34218799   -0.86617404 -203.00690058
     atom   36 type  1   force =    -0.00001731   -0.00312014 -204.46463454
     atom   37 type  2   force =    -0.00002087   -0.09591746  -94.15962437
     atom   38 type  3   force =     0.00002726    0.06178311 -161.56923453
     The core correction contribution to forces
     atom    1 type  1   force =     0.00000000    0.00000355    0.01936611
     atom    2 type  1   force =    -0.00021893    0.00004427    0.01940823
     atom    3 type  1   force =     0.00021892    0.00004427    0.01940821
     atom    4 type  1   force =    -0.00007368   -0.00022128    0.01940467
     atom    5 type  1   force =    -0.00000001   -0.00001091    0.01895013
     atom    6 type  1   force =     0.00007368   -0.00022128    0.01940468
     atom    7 type  1   force =     0.00014440    0.00017781    0.01940431
     atom    8 type  1   force =    -0.00014440    0.00017781    0.01940432
     atom    9 type  1   force =     0.00000000    0.00000967    0.01978436
     atom   10 type  1   force =     0.00024774    0.00014395    0.00010567
     atom   11 type  1   force =    -0.00000001   -0.00063416   -0.00037023
     atom   12 type  1   force =    -0.00024774    0.00014400    0.00010567
     atom   13 type  1   force =    -0.00055786    0.00031306   -0.00036411
     atom   14 type  1   force =     0.00055788    0.00031308   -0.00036409
     atom   15 type  1   force =    -0.00000002    0.00028179    0.00066770
     atom   16 type  1   force =     0.00000005   -0.00027834    0.00009284
     atom   17 type  1   force =     0.00024453   -0.00014110    0.00066412
     atom   18 type  1   force =    -0.00024457   -0.00014110    0.00066412
     atom   19 type  1   force =     0.00000002   -0.00035106   -0.00017855
     atom   20 type  1   force =     0.00157938    0.00091810    0.00098433
     atom   21 type  1   force =    -0.00157938    0.00091814    0.00098435
     atom   22 type  1   force =     0.00009186   -0.00004600    0.00048262
     atom   23 type  1   force =     0.00000002   -0.00180447    0.00093759
     atom   24 type  1   force =    -0.00009187   -0.00004599    0.00048263
     atom   25 type  1   force =     0.00030643    0.00016395   -0.00017922
     atom   26 type  1   force =    -0.00030639    0.00016397   -0.00017921
     atom   27 type  1   force =    -0.00000002    0.00008951    0.00047322
     atom   28 type  1   force =    -0.00000001   -0.00000284   -0.01963600
     atom   29 type  1   force =    -0.00087057   -0.00168238   -0.02007171
     atom   30 type  1   force =     0.00087058   -0.00168234   -0.02007168
     atom   31 type  1   force =    -0.00190446    0.00007828   -0.02008300
     atom   32 type  1   force =    -0.00000010    0.00031782    0.02503748
     atom   33 type  1   force =     0.00190441    0.00007827   -0.02008300
     atom   34 type  1   force =    -0.00104340    0.00162400   -0.02008462
     atom   35 type  1   force =     0.00104342    0.00162397   -0.02008462
     atom   36 type  1   force =    -0.00000003   -0.00000579   -0.02027473
     atom   37 type  2   force =     0.00000009    0.00011972   -0.01714837
     atom   38 type  3   force =    -0.00000008   -0.00021316    0.02244625
     The Hubbard contrib.    to forces
     atom    1 type  1   force =     0.00000000    0.00000000    0.00000000
     atom    2 type  1   force =     0.00000000    0.00000000    0.00000000
     atom    3 type  1   force =     0.00000000    0.00000000    0.00000000
     atom    4 type  1   force =     0.00000000    0.00000000    0.00000000
     atom    5 type  1   force =     0.00000000    0.00000000    0.00000000
     atom    6 type  1   force =     0.00000000    0.00000000    0.00000000
     atom    7 type  1   force =     0.00000000    0.00000000    0.00000000
     atom    8 type  1   force =     0.00000000    0.00000000    0.00000000
     atom    9 type  1   force =     0.00000000    0.00000000    0.00000000
     atom   10 type  1   force =     0.00000000    0.00000000    0.00000000
     atom   11 type  1   force =     0.00000000    0.00000000    0.00000000
     atom   12 type  1   force =     0.00000000    0.00000000    0.00000000
     atom   13 type  1   force =     0.00000000    0.00000000    0.00000000
     atom   14 type  1   force =     0.00000000    0.00000000    0.00000000
     atom   15 type  1   force =     0.00000000    0.00000000    0.00000000
     atom   16 type  1   force =     0.00000000    0.00000000    0.00000000
     atom   17 type  1   force =     0.00000000    0.00000000    0.00000000
     atom   18 type  1   force =     0.00000000    0.00000000    0.00000000
     atom   19 type  1   force =     0.00000000    0.00000000    0.00000000
     atom   20 type  1   force =     0.00000000    0.00000000    0.00000000
     atom   21 type  1   force =     0.00000000    0.00000000    0.00000000
     atom   22 type  1   force =     0.00000000    0.00000000    0.00000000
     atom   23 type  1   force =     0.00000000    0.00000000    0.00000000
     atom   24 type  1   force =     0.00000000    0.00000000    0.00000000
     atom   25 type  1   force =     0.00000000    0.00000000    0.00000000
     atom   26 type  1   force =     0.00000000    0.00000000    0.00000000
     atom   27 type  1   force =     0.00000000    0.00000000    0.00000000
     atom   28 type  1   force =     0.00000000    0.00000000    0.00000000
     atom   29 type  1   force =     0.00000000    0.00000000    0.00000000
     atom   30 type  1   force =     0.00000000    0.00000000    0.00000000
     atom   31 type  1   force =     0.00000000    0.00000000    0.00000000
     atom   32 type  1   force =     0.00000000    0.00000000    0.00000000
     atom   33 type  1   force =     0.00000000    0.00000000    0.00000000
     atom   34 type  1   force =     0.00000000    0.00000000    0.00000000
     atom   35 type  1   force =     0.00000000    0.00000000    0.00000000
     atom   36 type  1   force =     0.00000000    0.00000000    0.00000000
     atom   37 type  2   force =     0.00000000    0.00000000    0.00000000
     atom   38 type  3   force =     0.00000000    0.00000000    0.00000000
     The SCF correction term to forces
     atom    1 type  1   force =     0.00000000    0.00000000    0.00000000
     atom    2 type  1   force =     0.00000000    0.00000000    0.00000000
     atom    3 type  1   force =     0.00000000    0.00000000    0.00000000
     atom    4 type  1   force =     0.00000000    0.00000000    0.00000000
     atom    5 type  1   force =     0.00000000    0.00000000    0.00000000
     atom    6 type  1   force =     0.00000000    0.00000000    0.00000000
     atom    7 type  1   force =     0.00000000    0.00000000    0.00000000
     atom    8 type  1   force =     0.00000000    0.00000000    0.00000000
     atom    9 type  1   force =     0.00000000    0.00000000    0.00000000
     atom   10 type  1   force =    -0.00000004   -0.00000002   -0.00000018
     atom   11 type  1   force =     0.00000002    0.00000042   -0.00000037
     atom   12 type  1   force =     0.00000001    0.00000000   -0.00000015
     atom   13 type  1   force =     0.00000037   -0.00000011   -0.00000041
     atom   14 type  1   force =    -0.00000035   -0.00000015   -0.00000040
     atom   15 type  1   force =    -0.00000002   -0.00000021   -0.00000031
     atom   16 type  1   force =     0.00000001   -0.00000003   -0.00000017
     atom   17 type  1   force =    -0.00000027    0.00000008   -0.00000030
     atom   18 type  1   force =     0.00000024    0.00000010   -0.00000029
     atom   19 type  1   force =    -0.00000003   -0.00000035   -0.00000123
     atom   20 type  1   force =    -0.00000011   -0.00000004   -0.00000139
     atom   21 type  1   force =     0.00000017   -0.00000006   -0.00000139
     atom   22 type  1   force =     0.00000026   -0.00000010   -0.00000116
     atom   23 type  1   force =     0.00000000    0.00000019   -0.00000137
     atom   24 type  1   force =    -0.00000026   -0.00000017   -0.00000120
     atom   25 type  1   force =     0.00000032    0.00000014   -0.00000118
     atom   26 type  1   force =    -0.00000036    0.00000012   -0.00000123
     atom   27 type  1   force =     0.00000005    0.00000024   -0.00000118
     atom   28 type  1   force =    -0.00000007   -0.00000009   -0.00000118
     atom   29 type  1   force =    -0.00000018    0.00000011   -0.00000107
     atom   30 type  1   force =     0.00000025    0.00000008   -0.00000104
     atom   31 type  1   force =     0.00000001   -0.00000021   -0.00000113
     atom   32 type  1   force =     0.00000002    0.00000005   -0.00000070
     atom   33 type  1   force =    -0.00000002   -0.00000027   -0.00000114
     atom   34 type  1   force =     0.00000025    0.00000017   -0.00000110
     atom   35 type  1   force =    -0.00000030    0.00000013   -0.00000110
     atom   36 type  1   force =     0.00000003    0.00000002   -0.00000103
     atom   37 type  2   force =     0.00000001    0.00000000    0.00000025
     atom   38 type  3   force =     0.00000001   -0.00000001   -0.00000098

     3D-RISM Solvation contribution to forces:
     atom    1 type  1   force =     0.00000001   -0.00000031    0.00000697
     atom    2 type  1   force =     0.00001163    0.00002340    0.00003072
     atom    3 type  1   force =    -0.00001163    0.00002342    0.00003072
     atom    4 type  1   force =     0.00002635   -0.00000121    0.00003116
     atom    5 type  1   force =     0.00000004    0.00000059    0.00008322
     atom    6 type  1   force =    -0.00002637   -0.00000119    0.00003124
     atom    7 type  1   force =     0.00001474   -0.00002219    0.00003171
     atom    8 type  1   force =    -0.00001471   -0.00002220    0.00003179
     atom    9 type  1   force =    -0.00000003   -0.00000027    0.00000184
     atom   10 type  1   force =     0.00013986    0.00008119    0.00003810
     atom   11 type  1   force =     0.00000002    0.00020108    0.00030354
     atom   12 type  1   force =    -0.00013980    0.00008127    0.00003811
     atom   13 type  1   force =     0.00017374   -0.00009704    0.00030986
     atom   14 type  1   force =    -0.00017361   -0.00009699    0.00030990
     atom   15 type  1   force =    -0.00000007   -0.00005272   -0.00004843
     atom   16 type  1   force =     0.00000010   -0.00016512    0.00004384
     atom   17 type  1   force =    -0.00004852    0.00002424   -0.00004920
     atom   18 type  1   force =     0.00004845    0.00002428   -0.00004924
     atom   19 type  1   force =     0.00000007    0.00027636   -0.00045549
     atom   20 type  1   force =     0.00101926    0.00060914    0.00202039
     atom   21 type  1   force =    -0.00101915    0.00060929    0.00202045
     atom   22 type  1   force =     0.00118190   -0.00067585   -0.00005350
     atom   23 type  1   force =     0.00000018   -0.00116789    0.00206617
     atom   24 type  1   force =    -0.00118193   -0.00067578   -0.00005321
     atom   25 type  1   force =    -0.00022117   -0.00015498   -0.00044325
     atom   26 type  1   force =     0.00022141   -0.00015504   -0.00044300
     atom   27 type  1   force =    -0.00000008    0.00133866   -0.00009005
     atom   28 type  1   force =     0.00000044   -0.00013066   -0.01743375
     atom   29 type  1   force =     0.00521622    0.01023576    0.00322120
     atom   30 type  1   force =    -0.00521664    0.01023645    0.00322056
     atom   31 type  1   force =     0.01154790   -0.00045187    0.00340386
     atom   32 type  1   force =     0.00000052    0.00017486    0.00843069
     atom   33 type  1   force =    -0.01154840   -0.00045132    0.00340451
     atom   34 type  1   force =     0.00632968   -0.00973919    0.00362046
     atom   35 type  1   force =    -0.00632906   -0.00973919    0.00362174
     atom   36 type  1   force =    -0.00000063   -0.00010683   -0.01936880
     atom   37 type  2   force =     0.00000021    0.00030574   -0.02151129
     atom   38 type  3   force =     0.00000021    0.00083014   -0.08230449

     Total force =     0.001513     Total SCF correction =     0.000005

     Total 3D-RISM Solvation Force =     0.094246

     Writing output data file Cu-vib.save
 
     init_run     :    394.40s CPU    199.83s WALL (       1 calls)
     electrons    :   6848.32s CPU   3487.11s WALL (       1 calls)
     forces       :     25.77s CPU     13.31s WALL (       1 calls)

     Called by init_run:
     wfcinit      :     58.66s CPU     30.22s WALL (       1 calls)
     wfcinit:atom :      0.02s CPU      0.02s WALL (      34 calls)
     wfcinit:wfcr :     58.33s CPU     29.88s WALL (      34 calls)
     potinit      :    327.10s CPU    164.94s WALL (       1 calls)

     Called by electrons:
     c_bands      :   3818.97s CPU   1958.76s WALL (      32 calls)
     sum_band     :    514.06s CPU    263.00s WALL (      32 calls)
     v_of_rho     :     42.52s CPU     21.03s WALL (      32 calls)
     v_h          :      2.19s CPU      0.51s WALL (      64 calls)
     v_xc         :     42.24s CPU     21.41s WALL (      33 calls)
     newd         :      2.20s CPU      1.16s WALL (      32 calls)
     PAW_pot      :      2.70s CPU      2.67s WALL (      32 calls)
     mix_rho      :      1.56s CPU      0.53s WALL (      32 calls)

     Called by c_bands:
     init_us_2    :      1.44s CPU      1.45s WALL (    2244 calls)
     crmmdiagg    :   2474.26s CPU   1271.08s WALL (    1088 calls)
     wfcrot       :   1323.00s CPU    676.96s WALL (    1054 calls)
     gsorth       :     78.13s CPU     38.21s WALL (    1088 calls)

     Called by sum_band:
     sum_band:bec :      3.21s CPU      1.17s WALL (    1088 calls)
     addusdens    :      2.19s CPU      1.16s WALL (      32 calls)

     Called by *rmmdiagg:
     h_psi        :   3399.67s CPU   1744.78s WALL (    9343 calls)
     s_psi        :     55.48s CPU     26.14s WALL (    9343 calls)
     cdiaghg      :    150.19s CPU     75.58s WALL (    1054 calls)
     cdiaghg:chol :      6.77s CPU      2.67s WALL (    1054 calls)
     cdiaghg:inve :      1.73s CPU      1.73s WALL (    1054 calls)
     cdiaghg:para :      3.71s CPU      1.67s WALL (    2108 calls)

     Called by h_psi:
     h_psi:pot    :   3398.37s CPU   1743.43s WALL (    9343 calls)
     h_psi:calbec :    127.97s CPU     65.36s WALL (    9343 calls)
     vloc_psi     :   3219.42s CPU   1651.03s WALL (    9343 calls)
     add_vuspsi   :     49.77s CPU     26.88s WALL (    9343 calls)

     General routines
     calbec       :    159.39s CPU     83.76s WALL (   10567 calls)
     fft          :     25.45s CPU     15.24s WALL (    2270 calls)
     ffts         :      0.15s CPU      0.15s WALL (      64 calls)
     fftw         :   3628.38s CPU   1851.97s WALL ( 1910510 calls)
     fftc         :      0.78s CPU      0.14s WALL (      64 calls)
     interpolate  :      1.59s CPU      0.57s WALL (      64 calls)
 
     Parallel routines
     fft_scatter  :   2694.98s CPU   1409.40s WALL ( 2008010 calls)

     PAW routines
     PAW_pot      :      2.70s CPU      2.67s WALL (      32 calls)

     RISM routines
     1DRISM_pre   :     27.59s CPU     14.17s WALL (       1 calls)
     1DRISM_run   :      0.81s CPU      1.17s WALL (       1 calls)
     3DRISM_pre   :     10.65s CPU      6.29s WALL (       1 calls)
     3DRISM_run   :   2778.39s CPU   1396.10s WALL (      32 calls)
     3DRISM_for   :      4.97s CPU      2.89s WALL (       1 calls)
     3DRISM_vsol  :      0.20s CPU      0.20s WALL (      32 calls)
 
     PWSCF        :     2h 4m CPU        1h 3m WALL

 
   This run was terminated on:   2:37:40  11Feb2026            

=------------------------------------------------------------------------------=
   JOB DONE.
=------------------------------------------------------------------------------=
