
     Program PWSCF v.6.1 starts on  9Feb2026 at 13:18:34 

     This program is part of the open-source Quantum ESPRESSO suite
     for quantum simulation of materials; please cite
         "P. Giannozzi et al., J. Phys.:Condens. Matter 21 395502 (2009);
          URL http://www.quantum-espresso.org", 
     in publications or presentations arising from this work. More details at
     http://www.quantum-espresso.org/quote

     Parallel version (MPI & OpenMP), running on     192 processor cores
     Number of MPI processes:                96
     Threads/MPI process:                     2
     R & G space division:  proc/nbgrp/npool/nimage =      96
     Reading input from espresso.pwi
Warning: card &IONS ignored
Warning: card    ION_DYNAMICS     = 'BFGS' ignored
Warning: card / ignored
Warning: card &CELL ignored
Warning: card / ignored
Warning: card &FCP ignored
Warning: card / ignored
Warning: card &RISM ignored
Warning: card / ignored

     Current dimensions of program PWSCF are:
     Max number of different atomic species (ntypx) = 10
     Max number of k-points (npk) =  40000
     Max angular momentum in pseudopotentials (lmaxx) =  3

     IMPORTANT: XC functional enforced from input :
     Exchange-correlation      = VDW-DF2 ( 1  4 13  0 2 0)
     Any further DFT definition will be discarded
     Please, verify this is what you really want

               file O.pbe-n-kjpaw_psl.1.0.0.UPF: wavefunction(s)  2S 2P renormalized
               file H.pbe-kjpaw_psl.1.0.0.UPF: wavefunction(s)  1S renormalized

     Subspace diagonalization in iterative solution of the eigenvalue problem:
     one sub-group per band group will be used
     ELPA distributed-memory algorithm (size of sub-group:  6*  6 procs)

 
     Parallelization info
     --------------------
     sticks:   dense  smooth     PW     G-vecs:    dense   smooth      PW
     Min         740     296     74               148294    37508    4688
     Max         741     297     76               148300    37516    4690
     Sum       71041   28417   7129             14236565  3601159  450127
 


     bravais-lattice index     =            0
     lattice parameter (alat)  =      37.7945  a.u.
     unit-cell volume          =   53986.6738 (a.u.)^3
     number of atoms/cell      =            3
     number of atomic types    =            2
     number of electrons       =         8.00
     number of Kohn-Sham states=           40
     kinetic-energy cutoff     =      62.4738  Ry
     charge density cutoff     =     624.7385  Ry
     convergence threshold     =      7.3E-12
     mixing beta               =       0.3333
     number of iterations used =           12  plain     mixing
     Exchange-correlation      = VDW-DF2 ( 1  4 13  0 2 0)

     Effective Screening Medium Method
     =================================
     Boundary Conditions: Vacuum-Slab-Vacuum
     total charge in unit cell        =   0.0000
     grid points for fit at edges     =        4 
 

     celldm(1)=  37.794522  celldm(2)=   0.000000  celldm(3)=   0.000000
     celldm(4)=   0.000000  celldm(5)=   0.000000  celldm(6)=   0.000000

     crystal axes: (cart. coord. in units of alat)
               a(1) = (   1.000000   0.000000   0.000000 )  
               a(2) = (   0.000000   1.000000   0.000000 )  
               a(3) = (   0.000000   0.000000   1.000000 )  

     reciprocal axes: (cart. coord. in units 2 pi/alat)
               b(1) = (  1.000000  0.000000  0.000000 )  
               b(2) = (  0.000000  1.000000  0.000000 )  
               b(3) = (  0.000000  0.000000  1.000000 )  


     PseudoPot. # 1 for  O read from file:
     /work/gf93/f93007/QE/pseudo/O.pbe-n-kjpaw_psl.1.0.0.UPF
     MD5 check sum: c61d840054b6bba219e553541e327118
     Pseudo is Projector augmented-wave + core cor, Zval =  6.0
     Generated using "atomic" code by A. Dal Corso  v.6.1 svn rev. 13369
     Shape of augmentation charge: PSQ
     Using radial grid of 1095 points,  4 beta functions with: 
                l(1) =   0
                l(2) =   0
                l(3) =   1
                l(4) =   1
     Q(r) pseudized with 0 coefficients 


     PseudoPot. # 2 for  H read from file:
     /work/gf93/f93007/QE/pseudo/H.pbe-kjpaw_psl.1.0.0.UPF
     MD5 check sum: 29603ce6b94be0cf73e39cbb1f958d8e
     Pseudo is Projector augmented-wave, Zval =  1.0
     Generated using "atomic" code by A. Dal Corso  v.6.1 svn rev. 13369
     Shape of augmentation charge: PSQ
     Using radial grid of  929 points,  2 beta functions with: 
                l(1) =   0
                l(2) =   0
     Q(r) pseudized with 0 coefficients 


     vdW kernel table read from file vdW_kernel_table
     MD5 check sum: 6d69797d2e858e93e031fb7d16d30e50

     atomic species   valence    mass     pseudopotential
        O              6.00    15.99900      O( 1.00)
        H              1.00     1.00800      H( 1.00)

      4 Sym. Ops. (no inversion) found


                                    s                        frac. trans.

      isym =  1     identity                                     

 cryst.   s( 1) = (     1          0          0      )
                  (     0          1          0      )
                  (     0          0          1      )

 cart.    s( 1) = (  1.0000000  0.0000000  0.0000000 )
                  (  0.0000000  1.0000000  0.0000000 )
                  (  0.0000000  0.0000000  1.0000000 )


      isym =  2     180 deg rotation - cart. axis [0,0,1]        

 cryst.   s( 2) = (    -1          0          0      )
                  (     0         -1          0      )
                  (     0          0          1      )

 cart.    s( 2) = ( -1.0000000  0.0000000  0.0000000 )
                  (  0.0000000 -1.0000000  0.0000000 )
                  (  0.0000000  0.0000000  1.0000000 )


      isym =  3     inv. 180 deg rotation - cart. axis [0,1,0]   

 cryst.   s( 3) = (     1          0          0      )
                  (     0         -1          0      )
                  (     0          0          1      )

 cart.    s( 3) = (  1.0000000  0.0000000  0.0000000 )
                  (  0.0000000 -1.0000000  0.0000000 )
                  (  0.0000000  0.0000000  1.0000000 )


      isym =  4     inv. 180 deg rotation - cart. axis [1,0,0]   

 cryst.   s( 4) = (    -1          0          0      )
                  (     0          1          0      )
                  (     0          0          1      )

 cart.    s( 4) = ( -1.0000000  0.0000000  0.0000000 )
                  (  0.0000000  1.0000000  0.0000000 )
                  (  0.0000000  0.0000000  1.0000000 )


   Cartesian axes

     site n.     atom                  positions (alat units)
         1           O   tau(   1) = (   0.5000000   0.5000000   0.0001590  )
         2           H   tau(   2) = (   0.5000000   0.5384535   0.0297364  )
         3           H   tau(   3) = (   0.5000000   0.4615465   0.0297364  )

   Crystallographic axes

     site n.     atom                  positions (cryst. coord.)
         1           O   tau(   1) = (  0.5000000  0.5000000  0.0001590  )
         2           H   tau(   2) = (  0.5000000  0.5384535  0.0297364  )
         3           H   tau(   3) = (  0.5000000  0.4615465  0.0297364  )

     number of k points=     1
                       cart. coord. in units 2pi/alat
        k(    1) = (   0.0000000   0.0000000   0.0000000), wk =   2.0000000

                       cryst. coord.
        k(    1) = (   0.0000000   0.0000000   0.0000000), wk =   2.0000000

     Dense  grid: 14236565 G-vectors     FFT dimensions: ( 320, 320, 320)

     Smooth grid:  3601159 G-vectors     FFT dimensions: ( 192, 192, 192)

     Estimated max dynamical RAM per process >     488.77MB

     Estimated total allocated dynamical RAM >   46922.27MB

     Initial potential from superposition of free atoms
     Check: negative starting charge=   -0.001152

     starting charge    7.99998, renormalised to    8.00000

     negative rho (up, down):  1.152E-03 0.000E+00


     %%%%%%%%%%%%%%%%%%%%%%%%%%%%%%%%%%%%%%%%%%%%%%%%%%%%%%%%%%%%%%%%%%%%%%%%
     %                                                                      %
     % You are using vdW-DF, which was implemented by the Thonhauser group. %
     % Please cite the following two papers that made this development      %
     % possible and the two reviews that describe the various versions:     %
     %                                                                      %
     %   T. Thonhauser et al., PRL 115, 136402 (2015).                      %
     %   T. Thonhauser et al., PRB 76, 125112 (2007).                       %
     %   K. Berland et al., Rep. Prog. Phys. 78, 066501 (2015).             %
     %   D.C. Langreth et al., J. Phys.: Condens. Matter 21, 084203 (2009). %
     %                                                                      %
     %                                                                      %
     % If you are calculating the stress with vdW-DF, please also cite:     %
     %                                                                      %
     %   R. Sabatini et al., J. Phys.: Condens. Matter 24, 424209 (2012).   %
     %                                                                      %
     %%%%%%%%%%%%%%%%%%%%%%%%%%%%%%%%%%%%%%%%%%%%%%%%%%%%%%%%%%%%%%%%%%%%%%%%


     Carrying out vdW-DF run using the following parameters:
     Nqs    =  20  Npoints =  1024  r_max =  100.000
     q_mesh =  0.00001000  0.04494208  0.09755937  0.15916263
               0.23128650  0.31572767  0.41458969  0.53033537
               0.66584808  0.82450364  1.01025438  1.22772762
               1.48234092  1.78043706  2.12944203  2.53805004
               3.01644009  3.57652955  4.23227104  5.00000000


     -----------------------------------------------
     Non-local corr. energy    =       0.13358255 Ry
     -----------------------------------------------

     Starting wfc are    6 randomized atomic wfcs +   34 random wfc
     Checking if some PAW data can be deallocated... 
       node    0, deallocated PAW data for type:  2
       node    1, deallocated PAW data for type:  2
       node    2, deallocated PAW data for type:  2
       node    3, deallocated PAW data for type:  2
       node    4, deallocated PAW data for type:  2
       node    5, deallocated PAW data for type:  2
       node    6, deallocated PAW data for type:  2
       node    7, deallocated PAW data for type:  2
       node    8, deallocated PAW data for type:  2
       node    9, deallocated PAW data for type:  2
       node   10, deallocated PAW data for type:  2
       node   11, deallocated PAW data for type:  2
       node   12, deallocated PAW data for type:  2
       node   13, deallocated PAW data for type:  2
       node   14, deallocated PAW data for type:  2
       node   15, deallocated PAW data for type:  2
       node   16, deallocated PAW data for type:  2
       node   17, deallocated PAW data for type:  2
       node   18, deallocated PAW data for type:  2
       node   19, deallocated PAW data for type:  2
       node   20, deallocated PAW data for type:  2
       node   21, deallocated PAW data for type:  2
       node   22, deallocated PAW data for type:  2
       node   23, deallocated PAW data for type:  2
       node   24, deallocated PAW data for type:  2
       node   25, deallocated PAW data for type:  2
       node   26, deallocated PAW data for type:  2
       node   27, deallocated PAW data for type:  2
       node   28, deallocated PAW data for type:  2
       node   29, deallocated PAW data for type:  2
       node   30, deallocated PAW data for type:  2
       node   31, deallocated PAW data for type:  2
       node   32, deallocated PAW data for type:  1
       node   33, deallocated PAW data for type:  1
       node   34, deallocated PAW data for type:  1
       node   35, deallocated PAW data for type:  1
       node   36, deallocated PAW data for type:  1
       node   37, deallocated PAW data for type:  1
       node   38, deallocated PAW data for type:  1
       node   39, deallocated PAW data for type:  1
       node   40, deallocated PAW data for type:  1
       node   41, deallocated PAW data for type:  1
       node   42, deallocated PAW data for type:  1
       node   43, deallocated PAW data for type:  1
       node   44, deallocated PAW data for type:  1
       node   45, deallocated PAW data for type:  1
       node   46, deallocated PAW data for type:  1
       node   47, deallocated PAW data for type:  1
       node   48, deallocated PAW data for type:  1
       node   49, deallocated PAW data for type:  1
       node   50, deallocated PAW data for type:  1
       node   51, deallocated PAW data for type:  1
       node   52, deallocated PAW data for type:  1
       node   53, deallocated PAW data for type:  1
       node   54, deallocated PAW data for type:  1
       node   55, deallocated PAW data for type:  1
       node   56, deallocated PAW data for type:  1
       node   57, deallocated PAW data for type:  1
       node   58, deallocated PAW data for type:  1
       node   59, deallocated PAW data for type:  1
       node   60, deallocated PAW data for type:  1
       node   61, deallocated PAW data for type:  1
       node   62, deallocated PAW data for type:  1
       node   63, deallocated PAW data for type:  1
       node   64, deallocated PAW data for type:  1
       node   65, deallocated PAW data for type:  1
       node   66, deallocated PAW data for type:  1
       node   67, deallocated PAW data for type:  1
       node   68, deallocated PAW data for type:  1
       node   69, deallocated PAW data for type:  1
       node   70, deallocated PAW data for type:  1
       node   71, deallocated PAW data for type:  1
       node   72, deallocated PAW data for type:  1
       node   73, deallocated PAW data for type:  1
       node   74, deallocated PAW data for type:  1
       node   75, deallocated PAW data for type:  1
       node   76, deallocated PAW data for type:  1
       node   77, deallocated PAW data for type:  1
       node   78, deallocated PAW data for type:  1
       node   79, deallocated PAW data for type:  1
       node   80, deallocated PAW data for type:  1
       node   81, deallocated PAW data for type:  1
       node   82, deallocated PAW data for type:  1
       node   83, deallocated PAW data for type:  1
       node   84, deallocated PAW data for type:  1
       node   85, deallocated PAW data for type:  1
       node   86, deallocated PAW data for type:  1
       node   87, deallocated PAW data for type:  1
       node   88, deallocated PAW data for type:  1
       node   89, deallocated PAW data for type:  1
       node   90, deallocated PAW data for type:  1
       node   91, deallocated PAW data for type:  1
       node   92, deallocated PAW data for type:  1
       node   93, deallocated PAW data for type:  1
       node   94, deallocated PAW data for type:  1
       node   95, deallocated PAW data for type:  1

     total cpu time spent up to now is       26.9 secs

     per-process dynamical memory:   229.4 Mb

     Self-consistent Calculation

     iteration #  1     ecut=    62.47 Ry     beta=0.33
     Davidson diagonalization with overlap
     ethr =  1.00E-02,  avg # of iterations = 12.0

     negative rho (up, down):  1.366E-03 0.000E+00


     -----------------------------------------------
     Non-local corr. energy    =       0.13510404 Ry
     -----------------------------------------------


     total cpu time spent up to now is       36.3 secs

     total energy              =     -44.94346435 Ry
     Harris-Foulkes estimate   =     -45.19776992 Ry
     estimated scf accuracy    <       0.53986829 Ry

     iteration #  2     ecut=    62.47 Ry     beta=0.33
     Davidson diagonalization with overlap
     ethr =  6.75E-03,  avg # of iterations =  1.0

     negative rho (up, down):  8.897E-04 0.000E+00


     -----------------------------------------------
     Non-local corr. energy    =       0.13567414 Ry
     -----------------------------------------------


     total cpu time spent up to now is       43.0 secs

     total energy              =     -44.98638749 Ry
     Harris-Foulkes estimate   =     -45.00585340 Ry
     estimated scf accuracy    <       0.04788765 Ry

     iteration #  3     ecut=    62.47 Ry     beta=0.33
     Davidson diagonalization with overlap
     ethr =  5.99E-04,  avg # of iterations =  6.0

     negative rho (up, down):  1.516E-03 0.000E+00


     -----------------------------------------------
     Non-local corr. energy    =       0.13504750 Ry
     -----------------------------------------------


     total cpu time spent up to now is       50.8 secs

     total energy              =     -45.00646448 Ry
     Harris-Foulkes estimate   =     -45.03692727 Ry
     estimated scf accuracy    <       0.04656737 Ry

     iteration #  4     ecut=    62.47 Ry     beta=0.33
     Davidson diagonalization with overlap
     ethr =  5.82E-04,  avg # of iterations =  3.0

     negative rho (up, down):  1.559E-03 0.000E+00


     -----------------------------------------------
     Non-local corr. energy    =       0.13634823 Ry
     -----------------------------------------------


     total cpu time spent up to now is       57.6 secs

     total energy              =     -45.00997730 Ry
     Harris-Foulkes estimate   =     -45.04440925 Ry
     estimated scf accuracy    <       0.06752392 Ry

     iteration #  5     ecut=    62.47 Ry     beta=0.33
     Davidson diagonalization with overlap
     ethr =  5.82E-04,  avg # of iterations =  6.0

     negative rho (up, down):  1.472E-03 0.000E+00


     -----------------------------------------------
     Non-local corr. energy    =       0.13630773 Ry
     -----------------------------------------------


     total cpu time spent up to now is       64.7 secs

     total energy              =     -45.01939524 Ry
     Harris-Foulkes estimate   =     -45.01953936 Ry
     estimated scf accuracy    <       0.00195124 Ry

     iteration #  6     ecut=    62.47 Ry     beta=0.33
     Davidson diagonalization with overlap
     ethr =  2.44E-05,  avg # of iterations = 13.0

     negative rho (up, down):  1.489E-03 0.000E+00


     -----------------------------------------------
     Non-local corr. energy    =       0.13624741 Ry
     -----------------------------------------------


     total cpu time spent up to now is       73.6 secs

     total energy              =     -45.02472661 Ry
     Harris-Foulkes estimate   =     -45.02499804 Ry
     estimated scf accuracy    <       0.00109330 Ry

     iteration #  7     ecut=    62.47 Ry     beta=0.33
     Davidson diagonalization with overlap
     ethr =  1.37E-05,  avg # of iterations =  1.0

     negative rho (up, down):  1.636E-03 0.000E+00


     -----------------------------------------------
     Non-local corr. energy    =       0.13614989 Ry
     -----------------------------------------------


     total cpu time spent up to now is       80.2 secs

     total energy              =     -45.02439939 Ry
     Harris-Foulkes estimate   =     -45.02475024 Ry
     estimated scf accuracy    <       0.00051248 Ry

     iteration #  8     ecut=    62.47 Ry     beta=0.33
     Davidson diagonalization with overlap
     ethr =  6.41E-06,  avg # of iterations =  3.0

     negative rho (up, down):  1.629E-03 0.000E+00


     -----------------------------------------------
     Non-local corr. energy    =       0.13616568 Ry
     -----------------------------------------------


     total cpu time spent up to now is       87.0 secs

     total energy              =     -45.02471727 Ry
     Harris-Foulkes estimate   =     -45.02482293 Ry
     estimated scf accuracy    <       0.00049120 Ry

     iteration #  9     ecut=    62.47 Ry     beta=0.33
     Davidson diagonalization with overlap
     ethr =  6.14E-06,  avg # of iterations =  1.0

     negative rho (up, down):  1.640E-03 0.000E+00


     -----------------------------------------------
     Non-local corr. energy    =       0.13617117 Ry
     -----------------------------------------------


     total cpu time spent up to now is       93.6 secs

     total energy              =     -45.02468180 Ry
     Harris-Foulkes estimate   =     -45.02472509 Ry
     estimated scf accuracy    <       0.00026473 Ry

     iteration # 10     ecut=    62.47 Ry     beta=0.33
     Davidson diagonalization with overlap
     ethr =  3.31E-06,  avg # of iterations =  2.0

     negative rho (up, down):  1.639E-03 0.000E+00


     -----------------------------------------------
     Non-local corr. energy    =       0.13617111 Ry
     -----------------------------------------------


     total cpu time spent up to now is      100.4 secs

     total energy              =     -45.02470362 Ry
     Harris-Foulkes estimate   =     -45.02470353 Ry
     estimated scf accuracy    <       0.00006540 Ry

     iteration # 11     ecut=    62.47 Ry     beta=0.33
     Davidson diagonalization with overlap
     ethr =  8.17E-07,  avg # of iterations =  6.0

     negative rho (up, down):  1.638E-03 0.000E+00


     -----------------------------------------------
     Non-local corr. energy    =       0.13617109 Ry
     -----------------------------------------------


     total cpu time spent up to now is      107.4 secs

     total energy              =     -45.02470303 Ry
     Harris-Foulkes estimate   =     -45.02470521 Ry
     estimated scf accuracy    <       0.00006674 Ry

     iteration # 12     ecut=    62.47 Ry     beta=0.33
     Davidson diagonalization with overlap
     ethr =  8.17E-07,  avg # of iterations =  1.0

     negative rho (up, down):  1.644E-03 0.000E+00


     -----------------------------------------------
     Non-local corr. energy    =       0.13617288 Ry
     -----------------------------------------------


     total cpu time spent up to now is      114.1 secs

     total energy              =     -45.02469403 Ry
     Harris-Foulkes estimate   =     -45.02470387 Ry
     estimated scf accuracy    <       0.00005742 Ry

     iteration # 13     ecut=    62.47 Ry     beta=0.33
     Davidson diagonalization with overlap
     ethr =  7.18E-07,  avg # of iterations =  1.0

     negative rho (up, down):  1.638E-03 0.000E+00


     -----------------------------------------------
     Non-local corr. energy    =       0.13617222 Ry
     -----------------------------------------------


     total cpu time spent up to now is      120.7 secs

     total energy              =     -45.02469766 Ry
     Harris-Foulkes estimate   =     -45.02469549 Ry
     estimated scf accuracy    <       0.00002935 Ry

     iteration # 14     ecut=    62.47 Ry     beta=0.33
     Davidson diagonalization with overlap
     ethr =  3.67E-07,  avg # of iterations =  1.0

     negative rho (up, down):  1.637E-03 0.000E+00


     -----------------------------------------------
     Non-local corr. energy    =       0.13617255 Ry
     -----------------------------------------------


     total cpu time spent up to now is      127.3 secs

     total energy              =     -45.02469703 Ry
     Harris-Foulkes estimate   =     -45.02469808 Ry
     estimated scf accuracy    <       0.00003366 Ry

     iteration # 15     ecut=    62.47 Ry     beta=0.33
     Davidson diagonalization with overlap
     ethr =  3.67E-07,  avg # of iterations =  1.0

     negative rho (up, down):  1.629E-03 0.000E+00


     -----------------------------------------------
     Non-local corr. energy    =       0.13617342 Ry
     -----------------------------------------------


     total cpu time spent up to now is      133.9 secs

     total energy              =     -45.02469381 Ry
     Harris-Foulkes estimate   =     -45.02469737 Ry
     estimated scf accuracy    <       0.00002840 Ry

     iteration # 16     ecut=    62.47 Ry     beta=0.33
     Davidson diagonalization with overlap
     ethr =  3.55E-07,  avg # of iterations =  1.0

     negative rho (up, down):  1.619E-03 0.000E+00


     -----------------------------------------------
     Non-local corr. energy    =       0.13617548 Ry
     -----------------------------------------------


     total cpu time spent up to now is      140.5 secs

     total energy              =     -45.02469322 Ry
     Harris-Foulkes estimate   =     -45.02469445 Ry
     estimated scf accuracy    <       0.00001700 Ry

     iteration # 17     ecut=    62.47 Ry     beta=0.33
     Davidson diagonalization with overlap
     ethr =  2.13E-07,  avg # of iterations =  2.0

     negative rho (up, down):  1.620E-03 0.000E+00


     -----------------------------------------------
     Non-local corr. energy    =       0.13617502 Ry
     -----------------------------------------------


     total cpu time spent up to now is      147.1 secs

     total energy              =     -45.02469460 Ry
     Harris-Foulkes estimate   =     -45.02469398 Ry
     estimated scf accuracy    <       0.00001053 Ry

     iteration # 18     ecut=    62.47 Ry     beta=0.33
     Davidson diagonalization with overlap
     ethr =  1.32E-07,  avg # of iterations =  1.0

     negative rho (up, down):  1.595E-03 0.000E+00


     -----------------------------------------------
     Non-local corr. energy    =       0.13617920 Ry
     -----------------------------------------------


     total cpu time spent up to now is      153.7 secs

     total energy              =     -45.02469105 Ry
     Harris-Foulkes estimate   =     -45.02469472 Ry
     estimated scf accuracy    <       0.00001168 Ry

     iteration # 19     ecut=    62.47 Ry     beta=0.33
     Davidson diagonalization with overlap
     ethr =  1.32E-07,  avg # of iterations =  1.0

     negative rho (up, down):  1.581E-03 0.000E+00


     -----------------------------------------------
     Non-local corr. energy    =       0.13617740 Ry
     -----------------------------------------------


     total cpu time spent up to now is      160.3 secs

     total energy              =     -45.02469302 Ry
     Harris-Foulkes estimate   =     -45.02469195 Ry
     estimated scf accuracy    <       0.00000218 Ry

     iteration # 20     ecut=    62.47 Ry     beta=0.33
     Davidson diagonalization with overlap
     ethr =  2.72E-08,  avg # of iterations =  3.0

     negative rho (up, down):  1.580E-03 0.000E+00


     -----------------------------------------------
     Non-local corr. energy    =       0.13617811 Ry
     -----------------------------------------------


     total cpu time spent up to now is      167.1 secs

     total energy              =     -45.02469336 Ry
     Harris-Foulkes estimate   =     -45.02469382 Ry
     estimated scf accuracy    <       0.00000239 Ry

     iteration # 21     ecut=    62.47 Ry     beta=0.33
     Davidson diagonalization with overlap
     ethr =  2.72E-08,  avg # of iterations =  1.0

     negative rho (up, down):  1.580E-03 0.000E+00


     -----------------------------------------------
     Non-local corr. energy    =       0.13617916 Ry
     -----------------------------------------------


     total cpu time spent up to now is      173.7 secs

     total energy              =     -45.02469311 Ry
     Harris-Foulkes estimate   =     -45.02469345 Ry
     estimated scf accuracy    <       0.00000108 Ry

     iteration # 22     ecut=    62.47 Ry     beta=0.33
     Davidson diagonalization with overlap
     ethr =  1.35E-08,  avg # of iterations =  3.0

     negative rho (up, down):  1.572E-03 0.000E+00


     -----------------------------------------------
     Non-local corr. energy    =       0.13618042 Ry
     -----------------------------------------------


     total cpu time spent up to now is      180.5 secs

     total energy              =     -45.02469379 Ry
     Harris-Foulkes estimate   =     -45.02469366 Ry
     estimated scf accuracy    <       0.00000004 Ry

     iteration # 23     ecut=    62.47 Ry     beta=0.33
     Davidson diagonalization with overlap
     ethr =  4.97E-10,  avg # of iterations =  4.0

     negative rho (up, down):  1.573E-03 0.000E+00


     -----------------------------------------------
     Non-local corr. energy    =       0.13618067 Ry
     -----------------------------------------------


     total cpu time spent up to now is      187.4 secs

     total energy              =     -45.02469363 Ry
     Harris-Foulkes estimate   =     -45.02469389 Ry
     estimated scf accuracy    <       0.00000030 Ry

     iteration # 24     ecut=    62.47 Ry     beta=0.33
     Davidson diagonalization with overlap
     ethr =  4.97E-10,  avg # of iterations =  3.0

     negative rho (up, down):  1.570E-03 0.000E+00


     -----------------------------------------------
     Non-local corr. energy    =       0.13618115 Ry
     -----------------------------------------------


     total cpu time spent up to now is      194.3 secs

     total energy              =     -45.02469380 Ry
     Harris-Foulkes estimate   =     -45.02469370 Ry
     estimated scf accuracy    <       0.00000004 Ry

     iteration # 25     ecut=    62.47 Ry     beta=0.33
     Davidson diagonalization with overlap
     ethr =  4.97E-10,  avg # of iterations =  3.0

     negative rho (up, down):  1.567E-03 0.000E+00


     -----------------------------------------------
     Non-local corr. energy    =       0.13617999 Ry
     -----------------------------------------------


     total cpu time spent up to now is      201.1 secs

     total energy              =     -45.02469373 Ry
     Harris-Foulkes estimate   =     -45.02469384 Ry
     estimated scf accuracy    <       0.00000019 Ry

     iteration # 26     ecut=    62.47 Ry     beta=0.33
     Davidson diagonalization with overlap
     ethr =  4.97E-10,  avg # of iterations =  3.0

     negative rho (up, down):  1.571E-03 0.000E+00


     -----------------------------------------------
     Non-local corr. energy    =       0.13617918 Ry
     -----------------------------------------------


     total cpu time spent up to now is      208.0 secs

     total energy              =     -45.02469375 Ry
     Harris-Foulkes estimate   =     -45.02469379 Ry
     estimated scf accuracy    <       0.00000005 Ry

     iteration # 27     ecut=    62.47 Ry     beta=0.33
     Davidson diagonalization with overlap
     ethr =  4.97E-10,  avg # of iterations =  3.0

     negative rho (up, down):  1.575E-03 0.000E+00


     -----------------------------------------------
     Non-local corr. energy    =       0.13617922 Ry
     -----------------------------------------------


     total cpu time spent up to now is      214.9 secs

     total energy              =     -45.02469365 Ry
     Harris-Foulkes estimate   =     -45.02469384 Ry
     estimated scf accuracy    <       0.00000085 Ry

     iteration # 28     ecut=    62.47 Ry     beta=0.33
     Davidson diagonalization with overlap
     ethr =  4.97E-10,  avg # of iterations =  4.0

     negative rho (up, down):  1.576E-03 0.000E+00


     -----------------------------------------------
     Non-local corr. energy    =       0.13617947 Ry
     -----------------------------------------------


     total cpu time spent up to now is      221.8 secs

     total energy              =     -45.02469381 Ry
     Harris-Foulkes estimate   =     -45.02469389 Ry
     estimated scf accuracy    <       0.00000007 Ry

     iteration # 29     ecut=    62.47 Ry     beta=0.33
     Davidson diagonalization with overlap
     ethr =  4.97E-10,  avg # of iterations =  3.0

     negative rho (up, down):  1.572E-03 0.000E+00


     -----------------------------------------------
     Non-local corr. energy    =       0.13617945 Ry
     -----------------------------------------------


     total cpu time spent up to now is      228.6 secs

     total energy              =     -45.02469388 Ry
     Harris-Foulkes estimate   =     -45.02469382 Ry
     estimated scf accuracy    <          6.9E-09 Ry

     iteration # 30     ecut=    62.47 Ry     beta=0.33
     Davidson diagonalization with overlap
     ethr =  8.63E-11,  avg # of iterations =  3.0

     negative rho (up, down):  1.572E-03 0.000E+00


     -----------------------------------------------
     Non-local corr. energy    =       0.13617929 Ry
     -----------------------------------------------


     total cpu time spent up to now is      235.4 secs

     total energy              =     -45.02469385 Ry
     Harris-Foulkes estimate   =     -45.02469388 Ry
     estimated scf accuracy    <       0.00000004 Ry

     iteration # 31     ecut=    62.47 Ry     beta=0.33
     Davidson diagonalization with overlap
     ethr =  8.63E-11,  avg # of iterations =  3.0

     negative rho (up, down):  1.573E-03 0.000E+00


     -----------------------------------------------
     Non-local corr. energy    =       0.13617923 Ry
     -----------------------------------------------


     total cpu time spent up to now is      242.2 secs

     total energy              =     -45.02469380 Ry
     Harris-Foulkes estimate   =     -45.02469386 Ry
     estimated scf accuracy    <          9.9E-09 Ry

     iteration # 32     ecut=    62.47 Ry     beta=0.33
     Davidson diagonalization with overlap
     ethr =  8.63E-11,  avg # of iterations =  3.0

     negative rho (up, down):  1.572E-03 0.000E+00


     -----------------------------------------------
     Non-local corr. energy    =       0.13617912 Ry
     -----------------------------------------------


     total cpu time spent up to now is      249.0 secs

     total energy              =     -45.02469382 Ry
     Harris-Foulkes estimate   =     -45.02469381 Ry
     estimated scf accuracy    <          2.6E-09 Ry

     iteration # 33     ecut=    62.47 Ry     beta=0.33
     Davidson diagonalization with overlap
     ethr =  3.22E-11,  avg # of iterations =  3.0

     negative rho (up, down):  1.572E-03 0.000E+00


     -----------------------------------------------
     Non-local corr. energy    =       0.13617904 Ry
     -----------------------------------------------


     total cpu time spent up to now is      255.7 secs

     total energy              =     -45.02469385 Ry
     Harris-Foulkes estimate   =     -45.02469382 Ry
     estimated scf accuracy    <          3.2E-09 Ry

     iteration # 34     ecut=    62.47 Ry     beta=0.33
     Davidson diagonalization with overlap
     ethr =  3.22E-11,  avg # of iterations =  1.0

     negative rho (up, down):  1.571E-03 0.000E+00


     -----------------------------------------------
     Non-local corr. energy    =       0.13617900 Ry
     -----------------------------------------------


     total cpu time spent up to now is      262.3 secs

     total energy              =     -45.02469387 Ry
     Harris-Foulkes estimate   =     -45.02469385 Ry
     estimated scf accuracy    <          1.8E-10 Ry

     iteration # 35     ecut=    62.47 Ry     beta=0.33
     Davidson diagonalization with overlap
     ethr =  2.19E-12,  avg # of iterations =  4.0

     negative rho (up, down):  1.571E-03 0.000E+00


     -----------------------------------------------
     Non-local corr. energy    =       0.13617901 Ry
     -----------------------------------------------


     total cpu time spent up to now is      269.2 secs

     total energy              =     -45.02469387 Ry
     Harris-Foulkes estimate   =     -45.02469387 Ry
     estimated scf accuracy    <          1.1E-09 Ry

     iteration # 36     ecut=    62.47 Ry     beta=0.33
     Davidson diagonalization with overlap
     ethr =  2.19E-12,  avg # of iterations =  1.0

     negative rho (up, down):  1.571E-03 0.000E+00


     -----------------------------------------------
     Non-local corr. energy    =       0.13617901 Ry
     -----------------------------------------------


     total cpu time spent up to now is      275.9 secs

     total energy              =     -45.02469387 Ry
     Harris-Foulkes estimate   =     -45.02469387 Ry
     estimated scf accuracy    <          9.8E-10 Ry

     iteration # 37     ecut=    62.47 Ry     beta=0.33
     Davidson diagonalization with overlap
     ethr =  2.19E-12,  avg # of iterations =  1.0

     negative rho (up, down):  1.571E-03 0.000E+00


     -----------------------------------------------
     Non-local corr. energy    =       0.13617900 Ry
     -----------------------------------------------


     total cpu time spent up to now is      282.5 secs

     total energy              =     -45.02469387 Ry
     Harris-Foulkes estimate   =     -45.02469387 Ry
     estimated scf accuracy    <          7.9E-10 Ry

     iteration # 38     ecut=    62.47 Ry     beta=0.33
     Davidson diagonalization with overlap
     ethr =  2.19E-12,  avg # of iterations =  3.0

     negative rho (up, down):  1.572E-03 0.000E+00


     -----------------------------------------------
     Non-local corr. energy    =       0.13617905 Ry
     -----------------------------------------------


     total cpu time spent up to now is      289.3 secs

     total energy              =     -45.02469387 Ry
     Harris-Foulkes estimate   =     -45.02469387 Ry
     estimated scf accuracy    <          8.1E-11 Ry

     iteration # 39     ecut=    62.47 Ry     beta=0.33
     Davidson diagonalization with overlap
     ethr =  1.02E-12,  avg # of iterations =  1.0

     negative rho (up, down):  1.571E-03 0.000E+00


     -----------------------------------------------
     Non-local corr. energy    =       0.13617906 Ry
     -----------------------------------------------


     total cpu time spent up to now is      295.9 secs

     total energy              =     -45.02469387 Ry
     Harris-Foulkes estimate   =     -45.02469387 Ry
     estimated scf accuracy    <          2.3E-11 Ry

     iteration # 40     ecut=    62.47 Ry     beta=0.33
     Davidson diagonalization with overlap
     ethr =  2.84E-13,  avg # of iterations =  3.0

     negative rho (up, down):  1.572E-03 0.000E+00


     -----------------------------------------------
     Non-local corr. energy    =       0.13617903 Ry
     -----------------------------------------------


     total cpu time spent up to now is      302.7 secs

     total energy              =     -45.02469387 Ry
     Harris-Foulkes estimate   =     -45.02469387 Ry
     estimated scf accuracy    <          4.7E-11 Ry

     iteration # 41     ecut=    62.47 Ry     beta=0.33
     Davidson diagonalization with overlap
     ethr =  2.84E-13,  avg # of iterations =  2.0

     negative rho (up, down):  1.572E-03 0.000E+00


     -----------------------------------------------
     Non-local corr. energy    =       0.13617904 Ry
     -----------------------------------------------


     total cpu time spent up to now is      309.3 secs

     total energy              =     -45.02469387 Ry
     Harris-Foulkes estimate   =     -45.02469387 Ry
     estimated scf accuracy    <          1.1E-11 Ry

     iteration # 42     ecut=    62.47 Ry     beta=0.33
     Davidson diagonalization with overlap
     ethr =  1.32E-13,  avg # of iterations =  1.0

     negative rho (up, down):  1.572E-03 0.000E+00


     -----------------------------------------------
     Non-local corr. energy    =       0.13617903 Ry
     -----------------------------------------------


     total cpu time spent up to now is      315.9 secs

     total energy              =     -45.02469387 Ry
     Harris-Foulkes estimate   =     -45.02469387 Ry
     estimated scf accuracy    <          1.1E-11 Ry

     iteration # 43     ecut=    62.47 Ry     beta=0.33
     Davidson diagonalization with overlap
     ethr =  1.32E-13,  avg # of iterations =  1.0

     negative rho (up, down):  1.572E-03 0.000E+00


     -----------------------------------------------
     Non-local corr. energy    =       0.13617903 Ry
     -----------------------------------------------


     total cpu time spent up to now is      322.4 secs

     End of self-consistent calculation

          k = 0.0000 0.0000 0.0000 (450127 PWs)   bands (ev):

   -25.6222 -13.5477  -9.6928  -7.6568  -1.4709  -0.1534  -0.0055   0.1333
     0.1428   0.1858   0.2113   0.3025   0.3140   0.4477   0.4675   0.5454
     0.5465   0.5494   0.5598   0.5767   0.5871   0.5880   0.5883   0.7560
     0.7780   0.8642   0.8802   0.9201   0.9280   0.9421   0.9552   1.0767
     1.1136   1.2060   1.2247   1.2632   1.2926   1.3847   1.4174   1.4996

     occupation numbers 
     1.0000   1.0000   1.0000   1.0000   0.0000   0.0000   0.0000   0.0000
     0.0000   0.0000   0.0000   0.0000   0.0000   0.0000   0.0000   0.0000
     0.0000   0.0000   0.0000   0.0000   0.0000   0.0000   0.0000   0.0000
     0.0000   0.0000   0.0000   0.0000   0.0000   0.0000   0.0000   0.0000
     0.0000   0.0000   0.0000   0.0000   0.0000   0.0000   0.0000   0.0000

     highest occupied, lowest unoccupied level (ev):    -7.6568   -1.4709

!    total energy              =     -45.02469387 Ry
     Harris-Foulkes estimate   =     -45.02469387 Ry
     estimated scf accuracy    <          1.6E-12 Ry

     total all-electron energy =      -153.871576 Ry

     The total energy is the sum of the following terms:

     one-electron contribution =     -68.85991609 Ry
     hartree contribution      =      36.11636008 Ry
     xc contribution           =      -9.22873732 Ry
     ewald contribution        =       7.17339305 Ry
     one-center paw contrib.   =     -10.22579359 Ry
      -> PAW hartree energy AE =      27.89683137 Ry
      -> PAW hartree energy PS =     -27.86214664 Ry
      -> PAW xc energy AE      =     -17.90388486 Ry
      -> PAW xc energy PS      =       7.64465171 Ry
      -> total E_H with PAW    =      36.15104481 Ry
      -> total E_XC with PAW   =     -19.48797047 Ry

     convergence has been achieved in  43 iterations

     negative rho (up, down):  1.572E-03 0.000E+00


     -----------------------------------------------
     Non-local corr. energy    =       0.13617903 Ry
     -----------------------------------------------


     Forces acting on atoms (cartesian axes, Ry/au):

     atom    1 type  1   force =     0.00000000    0.00000000   -0.00001084
     atom    2 type  2   force =     0.00000000    0.00001085    0.00000927
     atom    3 type  2   force =     0.00000000   -0.00001085    0.00000927
     The non-local contrib.  to forces
     atom    1 type  1   force =     0.00000000    0.00000000    2.51683311
     atom    2 type  2   force =     0.00000000   -0.09244051   -0.06539066
     atom    3 type  2   force =     0.00000000    0.09244051   -0.06539066
     The ionic contribution  to forces
     atom    1 type  1   force =     0.00000000    0.00000000   -4.35703719
     atom    2 type  2   force =     0.00000000    3.06413733    2.17851859
     atom    3 type  2   force =     0.00000000   -3.06413733    2.17851859
     The local contribution  to forces
     atom    1 type  1   force =    -0.00001462   -0.00001432    1.86440336
     atom    2 type  2   force =    -0.00000128   -2.97168607   -2.11311766
     atom    3 type  2   force =    -0.00000128    2.97168543   -2.11311909
     The core correction contribution to forces
     atom    1 type  1   force =     0.00000014    0.00000005   -0.02420862
     atom    2 type  2   force =     0.00000000    0.00000000    0.00000000
     atom    3 type  2   force =     0.00000000    0.00000000    0.00000000
     The Hubbard contrib.    to forces
     atom    1 type  1   force =     0.00000000    0.00000000    0.00000000
     atom    2 type  2   force =     0.00000000    0.00000000    0.00000000
     atom    3 type  2   force =     0.00000000    0.00000000    0.00000000
     The SCF correction term to forces
     atom    1 type  1   force =     0.00000000    0.00000000   -0.00000149
     atom    2 type  2   force =     0.00000000   -0.00000022   -0.00000029
     atom    3 type  2   force =     0.00000000    0.00000021   -0.00000029

     Total force =     0.000023     Total SCF correction =     0.000002

     Writing output data file H2O_IR.save
 
     init_run     :     45.65s CPU     24.64s WALL (       1 calls)
     electrons    :    577.10s CPU    296.85s WALL (       1 calls)
     forces       :     14.66s CPU      7.58s WALL (       1 calls)

     Called by init_run:
     wfcinit      :      0.81s CPU      0.53s WALL (       1 calls)
     wfcinit:atom :      0.00s CPU      0.00s WALL (       1 calls)
     wfcinit:wfcr :      0.73s CPU      0.47s WALL (       1 calls)
     potinit      :     14.16s CPU      7.24s WALL (       1 calls)

     Called by electrons:
     c_bands      :     82.05s CPU     43.82s WALL (      43 calls)
     sum_band     :     35.54s CPU     18.05s WALL (      43 calls)
     v_of_rho     :    440.07s CPU    225.28s WALL (      44 calls)
     v_h          :      5.75s CPU      2.94s WALL (      44 calls)
     v_xc         :    444.36s CPU    227.35s WALL (      45 calls)
     newd         :      8.73s CPU      6.38s WALL (      44 calls)
     PAW_pot      :      4.70s CPU      1.58s WALL (      44 calls)
     mix_rho      :      9.26s CPU      4.36s WALL (      43 calls)

     Called by c_bands:
     init_us_2    :      1.14s CPU      0.08s WALL (      87 calls)
     cegterg      :     81.93s CPU     43.67s WALL (      43 calls)

     Called by sum_band:
     sum_band:bec :      0.00s CPU      0.00s WALL (      43 calls)
     addusdens    :      6.92s CPU      3.56s WALL (      43 calls)

     Called by *egterg:
     h_psi        :     57.01s CPU     29.75s WALL (     167 calls)
     s_psi        :      0.04s CPU      0.04s WALL (     167 calls)
     g_psi        :      0.02s CPU      0.02s WALL (     123 calls)
     cdiaghg      :      9.31s CPU      5.47s WALL (     166 calls)
     cegterg:over :      2.77s CPU      1.75s WALL (     123 calls)
     cegterg:upda :      0.58s CPU      0.58s WALL (     123 calls)
     cegterg:last :      1.09s CPU      0.24s WALL (      47 calls)
     cdiaghg:chol :      0.18s CPU      0.20s WALL (     166 calls)
     cdiaghg:inve :      0.11s CPU      0.11s WALL (     166 calls)
     cdiaghg:para :      0.12s CPU      0.12s WALL (     332 calls)

     Called by h_psi:
     h_psi:pot    :     56.96s CPU     29.69s WALL (     167 calls)
     h_psi:calbec :      0.56s CPU      0.16s WALL (     167 calls)
     vloc_psi     :     56.35s CPU     29.49s WALL (     167 calls)
     add_vuspsi   :      0.04s CPU      0.04s WALL (     167 calls)

     General routines
     calbec       :      0.61s CPU      0.21s WALL (     214 calls)
     fft          :    242.08s CPU    118.41s WALL (    2961 calls)
     ffts         :      0.62s CPU      0.62s WALL (      87 calls)
     fftw         :     59.31s CPU     31.95s WALL (    9862 calls)
     interpolate  :      6.17s CPU      4.14s WALL (      87 calls)
 
     Parallel routines
     fft_scatter  :    198.18s CPU     95.23s WALL (   12910 calls)

     PAW routines
     PAW_pot      :      4.70s CPU      1.58s WALL (      44 calls)
     PAW_symme    :      0.01s CPU      0.01s WALL (      87 calls)
 
     PWSCF        : 10m46.05s CPU     5m35.25s WALL

 
   This run was terminated on:  13:24: 9   9Feb2026            

=------------------------------------------------------------------------------=
   JOB DONE.
=------------------------------------------------------------------------------=
