
     Program PWSCF v.6.1 starts on  9Feb2026 at 19:17: 5 

     This program is part of the open-source Quantum ESPRESSO suite
     for quantum simulation of materials; please cite
         "P. Giannozzi et al., J. Phys.:Condens. Matter 21 395502 (2009);
          URL http://www.quantum-espresso.org", 
     in publications or presentations arising from this work. More details at
     http://www.quantum-espresso.org/quote

     Parallel version (MPI & OpenMP), running on     480 processor cores
     Number of MPI processes:               240
     Threads/MPI process:                     2
     R & G space division:  proc/nbgrp/npool/nimage =     240
     Reading input from espresso.pwi

     Current dimensions of program PWSCF are:
     Max number of different atomic species (ntypx) = 10
     Max number of k-points (npk) =  40000
     Max angular momentum in pseudopotentials (lmaxx) =  3

     IMPORTANT: XC functional enforced from input :
     Exchange-correlation      = VDW-DF2 ( 1  4 13  0 2 0)
     Any further DFT definition will be discarded
     Please, verify this is what you really want

               file O.pbe-n-kjpaw_psl.1.0.0.UPF: wavefunction(s)  2S 2P renormalized
               file H.pbe-kjpaw_psl.1.0.0.UPF: wavefunction(s)  1S renormalized
     Message from routine iosys_1drism:
     default density from MOL file(H2O.tip5p.MOL) is used

     Subspace diagonalization in iterative solution of the eigenvalue problem:
     one sub-group per band group will be used
     ELPA distributed-memory algorithm (size of sub-group: 10* 10 procs)


     Molecule # 1 for H2O read from file:
     /work/gf93/f93007/QE/pseudo/H2O.tip5p.MOL
     Density:
         0.26741626E+03 cell^-1
         0.49533750E-02 bohr^-3
         0.55506881E+02 mol/L
         0.99997200E+00 g/cm^3
     Permittivity:
        78.355300
     Number of atoms:   5
     Atoms:
       #  atom      X (angs)      Y (angs)      Z (angs)      Q (e)         E (kcal/mol)  S (angs)
       1  O/h2o     0.00000000    0.00000000    0.00000000    0.00000000    0.16000000    3.12000000
       2  H/h2o     0.75695000    0.58588000    0.00000000    0.24100000    0.04600000    1.00000000
       3  H/h2o    -0.75695000    0.58588000    0.00000000    0.24100000    0.04600000    1.00000000
       4  L/h2o     0.00000000   -0.40415000    0.57154000   -0.24100000    0.04600000    1.80000000
       5  L/h2o     0.00000000   -0.40415000   -0.57154000   -0.24100000    0.04600000    1.80000000


     Molecule # 2 for K+ read from file:
     /work/gf93/f93007/QE/pseudo/K+.oplsaa.MOL
     Density:
         0.48177137E+01 cell^-1
         0.89238936E-04 bohr^-3
         0.10000000E+01 mol/L
         0.39098300E-01 g/cm^3
     Number of atoms:   1
     Atoms:
       #  atom      X (angs)      Y (angs)      Z (angs)      Q (e)         E (kcal/mol)  S (angs)
       1  K         0.00000000    0.00000000    0.00000000    1.00000000    0.00032800    4.93462800


     Molecule # 3 for OH- read from file:
     /work/gf93/f93007/QE/pseudo/OH-.oplsaa.MOL
     Density:
         0.48177137E+01 cell^-1
         0.89238936E-04 bohr^-3
         0.10000000E+01 mol/L
         0.17007340E-01 g/cm^3
     Number of atoms:   2
     Atoms:
       #  atom      X (angs)      Y (angs)      Z (angs)      Q (e)         E (kcal/mol)  S (angs)
       1  O/oh      0.00000000    0.00000000    0.00000000   -1.30000000    0.25000000    3.20000000
       2  H/oh      0.95300000    0.00000000    0.00000000    0.30000000    0.04600000    1.00000000


     Number of total sites:   8
     Index site -> solvent: 
       1  1  1  1  1  2  3  3
     Index site -> atom (in a solvent): 
       1  2  3  4  5  1  1  2


     Number of unique sites:   6
     Multiplicity of unique site: 
       1  2  2  1  1  1
     Index unique site -> site: 
       1:  1
       2:  2  3
       3:  4  5
       4:  6
       5:  7
       6:  8


     1D-RISM info
     ------------
     closure equation        =           KH
     temperature             =     300.0000  kelvin
     coulomb smearing radius =       2.0000  bohr
     number of solvent sites =            8
     nv * (nv + 1) / 2       =           36
     number of grids         =         8345
     maximum of R-space      =     999.8802  bohr
     maximum of G-space      =      26.2150  bohr^-1
     #R-grids in local       =           66
     #G-grids in local       =           66
     number of iterations    =       100000
     convergence threshold   =      1.0E-08
     Gaussian width of bonds =       0.2530  bohr
     size of MDIIS           =           20
     step of MDIIS           =       0.1000
     number of processes     =          128


     Radial FFT:
     number of radial grids   =         8345
     number of FFT grids      =        16689
     good number of FFT grids =           -1
     R-space grids:
       0.00000000E+00  0.11983223E+00  0.23966447E+00  0.35949670E+00  0.47932894E+00
       0.59916117E+00  0.71899341E+00  0.83882564E+00  0.95865788E+00  0.10784901E+01
       ..............  ..............  ..............  ..............  ..............
       0.99880168E+03  0.99892151E+03  0.99904134E+03  0.99916117E+03  0.99928101E+03
       0.99940084E+03  0.99952067E+03  0.99964050E+03  0.99976034E+03  0.99988017E+03
     G-space grids:
       0.00000000E+00  0.31417809E-02  0.62835618E-02  0.94253427E-02  0.12567124E-01
       0.15708904E-01  0.18850685E-01  0.21992466E-01  0.25134247E-01  0.28276028E-01
       ..............  ..............  ..............  ..............  ..............
       0.26186744E+02  0.26189886E+02  0.26193027E+02  0.26196169E+02  0.26199311E+02
       0.26202453E+02  0.26205594E+02  0.26208736E+02  0.26211878E+02  0.26215020E+02


     MPI for site:
     number of site groups     =          128
     #procs in a site group    =            1
     this proc in a site group =            0
     the root in a site group  =            0
     this site group           =            0
     inter-site group comm.    =           20
     intra-site group comm.    =            2
     total number of sites     =           36
     starting index of sites   =            1
     ending index of sites     =            1


     MPI for task:
     #procs in a task group    =          128
     this proc in a task group =            0
     the root in a task group  =            0
     task group comm.          =           20
     total number of vectors   =         8345
     starting index of vectors =            1
     ending index of vectors   =           66
     lengths of vectors        = 
        66   66   66   66   66   66   66   66   66   66
        66   66   66   66   66   66   66   66   66   66
        66   66   66   66   66   65   65   65   65   65
        65   65   65   65   65   65   65   65   65   65
        65   65   65   65   65   65   65   65   65   65
        65   65   65   65   65   65   65   65   65   65
        65   65   65   65   65   65   65   65   65   65
        65   65   65   65   65   65   65   65   65   65
        65   65   65   65   65   65   65   65   65   65
        65   65   65   65   65   65   65   65   65   65
        65   65   65   65   65   65   65   65   65   65
        65   65   65   65   65   65   65   65   65   65
        65   65   65   65   65   65   65   65
     displacement of vectors   = 
         0   66  132  198  264  330  396  462  528  594
       660  726  792  858  924  990 1056 1122 1188 1254
      1320 1386 1452 1518 1584 1650 1715 1780 1845 1910
      1975 2040 2105 2170 2235 2300 2365 2430 2495 2560
      2625 2690 2755 2820 2885 2950 3015 3080 3145 3210
      3275 3340 3405 3470 3535 3600 3665 3730 3795 3860
      3925 3990 4055 4120 4185 4250 4315 4380 4445 4510
      4575 4640 4705 4770 4835 4900 4965 5030 5095 5160
      5225 5290 5355 5420 5485 5550 5615 5680 5745 5810
      5875 5940 6005 6070 6135 6200 6265 6330 6395 6460
      6525 6590 6655 6720 6785 6850 6915 6980 7045 7110
      7175 7240 7305 7370 7435 7500 7565 7630 7695 7760
      7825 7890 7955 8020 8085 8150 8215 8280


     1D-RISM Calculation

     iter. #     1  RMS(g-h-1)= 2.612E-04  nbox=  0  T= 2400.00K
     iter. #     2  RMS(g-h-1)= 2.353E-04  nbox=  1  T= 2400.00K
     iter. #     3  RMS(g-h-1)= 2.120E-04  nbox=  2  T= 2400.00K
     iter. #     4  RMS(g-h-1)= 1.927E-04  nbox=  3  T= 2400.00K
     iter. #     5  RMS(g-h-1)= 1.769E-04  nbox=  4  T= 2400.00K
     iter. #     6  RMS(g-h-1)= 6.525E-05  nbox=  5  T= 2400.00K
     iter. #     7  RMS(g-h-1)= 6.619E-05  nbox=  6  T= 2400.00K
     iter. #     8  RMS(g-h-1)= 5.648E-05  nbox=  7  T= 2400.00K
     iter. #     9  RMS(g-h-1)= 4.561E-05  nbox=  8  T= 2400.00K
     iter. #    10  RMS(g-h-1)= 4.178E-05  nbox=  9  T= 2400.00K
     iter. #    11  RMS(g-h-1)= 3.925E-05  nbox= 10  T= 2400.00K
     iter. #    12  RMS(g-h-1)= 3.462E-05  nbox= 11  T= 2400.00K
     iter. #    13  RMS(g-h-1)= 2.959E-05  nbox= 12  T= 2400.00K
     iter. #    14  RMS(g-h-1)= 2.179E-05  nbox= 13  T= 2400.00K
     iter. #    15  RMS(g-h-1)= 2.037E-05  nbox= 14  T= 2400.00K
     iter. #    16  RMS(g-h-1)= 1.911E-05  nbox= 15  T= 2400.00K
     iter. #    17  RMS(g-h-1)= 1.739E-05  nbox= 16  T= 2400.00K
     iter. #    18  RMS(g-h-1)= 1.882E-05  nbox= 17  T= 2400.00K
     iter. #    19  RMS(g-h-1)= 1.321E-05  nbox= 18  T= 2400.00K
     iter. #    20  RMS(g-h-1)= 1.023E-05  nbox= 19  T= 2400.00K
     iter. #    21  RMS(g-h-1)= 9.296E-06  nbox= 20  T= 2400.00K
     iter. #    22  RMS(g-h-1)= 8.574E-06  nbox= 20  T= 2400.00K
     iter. #    23  RMS(g-h-1)= 7.919E-06  nbox= 20  T= 2400.00K
     iter. #    24  RMS(g-h-1)= 7.567E-06  nbox= 20  T= 2400.00K
     iter. #    25  RMS(g-h-1)= 8.591E-06  nbox= 20  T= 2400.00K
     iter. #    26  RMS(g-h-1)= 5.870E-06  nbox= 20  T= 2400.00K
     iter. #    27  RMS(g-h-1)= 5.908E-06  nbox= 20  T= 2400.00K
     iter. #    28  RMS(g-h-1)= 5.448E-06  nbox= 20  T= 2400.00K
     iter. #    29  RMS(g-h-1)= 4.162E-06  nbox= 20  T= 2400.00K
     iter. #    30  RMS(g-h-1)= 3.449E-06  nbox= 20  T= 2400.00K
     iter. #    31  RMS(g-h-1)= 2.450E-06  nbox= 20  T= 2400.00K
     iter. #    32  RMS(g-h-1)= 2.322E-06  nbox= 20  T= 2400.00K
     iter. #    33  RMS(g-h-1)= 1.819E-06  nbox= 20  T= 2400.00K
     iter. #    34  RMS(g-h-1)= 1.744E-06  nbox= 20  T= 2400.00K
     iter. #    35  RMS(g-h-1)= 1.538E-06  nbox= 20  T= 2400.00K
     iter. #    36  RMS(g-h-1)= 1.540E-06  nbox= 20  T= 2400.00K
     iter. #    37  RMS(g-h-1)= 1.471E-06  nbox= 20  T= 2400.00K
     iter. #    38  RMS(g-h-1)= 1.398E-06  nbox= 20  T= 2400.00K
     iter. #    39  RMS(g-h-1)= 1.378E-06  nbox= 20  T= 2400.00K
     iter. #    40  RMS(g-h-1)= 1.313E-06  nbox= 20  T= 2400.00K
     iter. #    41  RMS(g-h-1)= 1.283E-06  nbox= 20  T= 2400.00K
     iter. #    42  RMS(g-h-1)= 1.242E-06  nbox= 20  T= 2400.00K
     iter. #    43  RMS(g-h-1)= 1.202E-06  nbox= 20  T= 2400.00K
     iter. #    44  RMS(g-h-1)= 1.140E-06  nbox= 20  T= 2400.00K
     iter. #    45  RMS(g-h-1)= 1.144E-06  nbox= 20  T= 2400.00K
     iter. #    46  RMS(g-h-1)= 1.075E-06  nbox= 20  T= 2400.00K
     iter. #    47  RMS(g-h-1)= 1.065E-06  nbox= 20  T= 2400.00K
     iter. #    48  RMS(g-h-1)= 1.023E-06  nbox= 20  T= 2400.00K
     iter. #    49  RMS(g-h-1)= 1.011E-06  nbox= 20  T= 2400.00K
     iter. #    50  RMS(g-h-1)= 9.787E-07  nbox= 20  T= 1600.00K
     iter. #    51  RMS(g-h-1)= 1.437E-04  nbox= 20  T= 1600.00K
     iter. #    52  RMS(g-h-1)= 1.252E-04  nbox=  1  T= 1600.00K
     iter. #    53  RMS(g-h-1)= 1.085E-04  nbox=  2  T= 1600.00K
     iter. #    54  RMS(g-h-1)= 9.509E-05  nbox=  3  T= 1600.00K
     iter. #    55  RMS(g-h-1)= 8.437E-05  nbox=  4  T= 1600.00K
     iter. #    56  RMS(g-h-1)= 3.759E-05  nbox=  5  T= 1600.00K
     iter. #    57  RMS(g-h-1)= 2.998E-05  nbox=  6  T= 1600.00K
     iter. #    58  RMS(g-h-1)= 1.848E-05  nbox=  7  T= 1600.00K
     iter. #    59  RMS(g-h-1)= 1.724E-05  nbox=  8  T= 1600.00K
     iter. #    60  RMS(g-h-1)= 3.476E-05  nbox=  9  T= 1600.00K
     iter. #    61  RMS(g-h-1)= 2.806E-05  nbox=  1  T= 1600.00K
     iter. #    62  RMS(g-h-1)= 2.262E-05  nbox=  2  T= 1600.00K
     iter. #    63  RMS(g-h-1)= 1.888E-05  nbox=  3  T= 1600.00K
     iter. #    64  RMS(g-h-1)= 1.639E-05  nbox=  4  T= 1600.00K
     iter. #    65  RMS(g-h-1)= 7.741E-06  nbox=  5  T= 1600.00K
     iter. #    66  RMS(g-h-1)= 6.369E-06  nbox=  6  T= 1600.00K
     iter. #    67  RMS(g-h-1)= 5.399E-06  nbox=  7  T= 1600.00K
     iter. #    68  RMS(g-h-1)= 4.867E-06  nbox=  8  T= 1600.00K
     iter. #    69  RMS(g-h-1)= 3.385E-06  nbox=  9  T= 1600.00K
     iter. #    70  RMS(g-h-1)= 3.300E-06  nbox= 10  T= 1600.00K
     iter. #    71  RMS(g-h-1)= 2.908E-06  nbox= 11  T= 1600.00K
     iter. #    72  RMS(g-h-1)= 2.307E-06  nbox= 12  T= 1600.00K
     iter. #    73  RMS(g-h-1)= 2.171E-06  nbox= 13  T= 1600.00K
     iter. #    74  RMS(g-h-1)= 1.638E-06  nbox= 14  T= 1600.00K
     iter. #    75  RMS(g-h-1)= 1.712E-06  nbox= 15  T= 1600.00K
     iter. #    76  RMS(g-h-1)= 1.468E-06  nbox= 16  T= 1600.00K
     iter. #    77  RMS(g-h-1)= 1.302E-06  nbox= 17  T= 1600.00K
     iter. #    78  RMS(g-h-1)= 1.185E-06  nbox= 18  T= 1600.00K
     iter. #    79  RMS(g-h-1)= 1.131E-06  nbox= 19  T= 1600.00K
     iter. #    80  RMS(g-h-1)= 1.120E-06  nbox= 20  T= 1600.00K
     iter. #    81  RMS(g-h-1)= 1.086E-06  nbox= 20  T= 1600.00K
     iter. #    82  RMS(g-h-1)= 1.078E-06  nbox= 20  T= 1600.00K
     iter. #    83  RMS(g-h-1)= 1.076E-06  nbox= 20  T= 1600.00K
     iter. #    84  RMS(g-h-1)= 9.884E-07  nbox= 20  T= 1066.67K
     iter. #    85  RMS(g-h-1)= 1.866E-04  nbox= 20  T= 1066.67K
     iter. #    86  RMS(g-h-1)= 1.640E-04  nbox=  1  T= 1066.67K
     iter. #    87  RMS(g-h-1)= 1.432E-04  nbox=  2  T= 1066.67K
     iter. #    88  RMS(g-h-1)= 1.262E-04  nbox=  3  T= 1066.67K
     iter. #    89  RMS(g-h-1)= 1.123E-04  nbox=  4  T= 1066.67K
     iter. #    90  RMS(g-h-1)= 3.632E-05  nbox=  5  T= 1066.67K
     iter. #    91  RMS(g-h-1)= 4.446E-05  nbox=  6  T= 1066.67K
     iter. #    92  RMS(g-h-1)= 3.935E-05  nbox=  1  T= 1066.67K
     iter. #    93  RMS(g-h-1)= 3.536E-05  nbox=  2  T= 1066.67K
     iter. #    94  RMS(g-h-1)= 3.267E-05  nbox=  3  T= 1066.67K
     iter. #    95  RMS(g-h-1)= 3.085E-05  nbox=  4  T= 1066.67K
     iter. #    96  RMS(g-h-1)= 1.696E-05  nbox=  5  T= 1066.67K
     iter. #    97  RMS(g-h-1)= 1.597E-05  nbox=  6  T= 1066.67K
     iter. #    98  RMS(g-h-1)= 1.375E-05  nbox=  7  T= 1066.67K
     iter. #    99  RMS(g-h-1)= 1.366E-05  nbox=  8  T= 1066.67K
     iter. #   100  RMS(g-h-1)= 8.854E-06  nbox=  9  T= 1066.67K
     iter. #   101  RMS(g-h-1)= 7.117E-06  nbox= 10  T= 1066.67K
     iter. #   102  RMS(g-h-1)= 6.285E-06  nbox= 11  T= 1066.67K
     iter. #   103  RMS(g-h-1)= 5.964E-06  nbox= 12  T= 1066.67K
     iter. #   104  RMS(g-h-1)= 5.624E-06  nbox= 13  T= 1066.67K
     iter. #   105  RMS(g-h-1)= 3.905E-06  nbox= 14  T= 1066.67K
     iter. #   106  RMS(g-h-1)= 3.794E-06  nbox= 15  T= 1066.67K
     iter. #   107  RMS(g-h-1)= 4.146E-06  nbox= 16  T= 1066.67K
     iter. #   108  RMS(g-h-1)= 3.382E-06  nbox= 17  T= 1066.67K
     iter. #   109  RMS(g-h-1)= 2.139E-06  nbox= 18  T= 1066.67K
     iter. #   110  RMS(g-h-1)= 1.960E-06  nbox= 19  T= 1066.67K
     iter. #   111  RMS(g-h-1)= 1.731E-06  nbox= 20  T= 1066.67K
     iter. #   112  RMS(g-h-1)= 1.643E-06  nbox= 20  T= 1066.67K
     iter. #   113  RMS(g-h-1)= 1.572E-06  nbox= 20  T= 1066.67K
     iter. #   114  RMS(g-h-1)= 1.517E-06  nbox= 20  T= 1066.67K
     iter. #   115  RMS(g-h-1)= 1.545E-06  nbox= 20  T= 1066.67K
     iter. #   116  RMS(g-h-1)= 1.374E-06  nbox= 20  T= 1066.67K
     iter. #   117  RMS(g-h-1)= 1.359E-06  nbox= 20  T= 1066.67K
     iter. #   118  RMS(g-h-1)= 1.273E-06  nbox= 20  T= 1066.67K
     iter. #   119  RMS(g-h-1)= 1.261E-06  nbox= 20  T= 1066.67K
     iter. #   120  RMS(g-h-1)= 1.200E-06  nbox= 20  T= 1066.67K
     iter. #   121  RMS(g-h-1)= 1.282E-06  nbox= 20  T= 1066.67K
     iter. #   122  RMS(g-h-1)= 1.426E-06  nbox= 20  T= 1066.67K
     iter. #   123  RMS(g-h-1)= 1.338E-06  nbox= 20  T= 1066.67K
     iter. #   124  RMS(g-h-1)= 1.258E-06  nbox= 20  T= 1066.67K
     iter. #   125  RMS(g-h-1)= 1.243E-06  nbox= 20  T= 1066.67K
     iter. #   126  RMS(g-h-1)= 1.084E-06  nbox= 20  T= 1066.67K
     iter. #   127  RMS(g-h-1)= 1.050E-06  nbox= 20  T= 1066.67K
     iter. #   128  RMS(g-h-1)= 9.946E-07  nbox= 20  T=  711.11K
     iter. #   129  RMS(g-h-1)= 2.420E-04  nbox= 20  T=  711.11K
     iter. #   130  RMS(g-h-1)= 2.149E-04  nbox=  1  T=  711.11K
     iter. #   131  RMS(g-h-1)= 1.894E-04  nbox=  2  T=  711.11K
     iter. #   132  RMS(g-h-1)= 1.680E-04  nbox=  3  T=  711.11K
     iter. #   133  RMS(g-h-1)= 1.503E-04  nbox=  4  T=  711.11K
     iter. #   134  RMS(g-h-1)= 4.349E-05  nbox=  5  T=  711.11K
     iter. #   135  RMS(g-h-1)= 4.387E-05  nbox=  6  T=  711.11K
     iter. #   136  RMS(g-h-1)= 3.806E-05  nbox=  7  T=  711.11K
     iter. #   137  RMS(g-h-1)= 3.552E-05  nbox=  8  T=  711.11K
     iter. #   138  RMS(g-h-1)= 3.467E-05  nbox=  9  T=  711.11K
     iter. #   139  RMS(g-h-1)= 3.173E-05  nbox= 10  T=  711.11K
     iter. #   140  RMS(g-h-1)= 2.835E-05  nbox= 11  T=  711.11K
     iter. #   141  RMS(g-h-1)= 2.965E-05  nbox= 12  T=  711.11K
     iter. #   142  RMS(g-h-1)= 2.434E-05  nbox= 13  T=  711.11K
     iter. #   143  RMS(g-h-1)= 1.986E-05  nbox= 14  T=  711.11K
     iter. #   144  RMS(g-h-1)= 1.944E-05  nbox= 15  T=  711.11K
     iter. #   145  RMS(g-h-1)= 1.319E-05  nbox= 16  T=  711.11K
     iter. #   146  RMS(g-h-1)= 1.514E-05  nbox= 17  T=  711.11K
     iter. #   147  RMS(g-h-1)= 1.014E-05  nbox= 18  T=  711.11K
     iter. #   148  RMS(g-h-1)= 7.953E-06  nbox= 19  T=  711.11K
     iter. #   149  RMS(g-h-1)= 9.295E-06  nbox= 20  T=  711.11K
     iter. #   150  RMS(g-h-1)= 6.529E-06  nbox= 20  T=  711.11K
     iter. #   151  RMS(g-h-1)= 4.958E-06  nbox= 20  T=  711.11K
     iter. #   152  RMS(g-h-1)= 6.828E-06  nbox= 20  T=  711.11K
     iter. #   153  RMS(g-h-1)= 6.114E-06  nbox=  1  T=  711.11K
     iter. #   154  RMS(g-h-1)= 5.519E-06  nbox=  2  T=  711.11K
     iter. #   155  RMS(g-h-1)= 5.072E-06  nbox=  3  T=  711.11K
     iter. #   156  RMS(g-h-1)= 4.730E-06  nbox=  4  T=  711.11K
     iter. #   157  RMS(g-h-1)= 2.554E-06  nbox=  5  T=  711.11K
     iter. #   158  RMS(g-h-1)= 2.336E-06  nbox=  6  T=  711.11K
     iter. #   159  RMS(g-h-1)= 2.159E-06  nbox=  7  T=  711.11K
     iter. #   160  RMS(g-h-1)= 1.968E-06  nbox=  8  T=  711.11K
     iter. #   161  RMS(g-h-1)= 1.863E-06  nbox=  9  T=  711.11K
     iter. #   162  RMS(g-h-1)= 1.697E-06  nbox= 10  T=  711.11K
     iter. #   163  RMS(g-h-1)= 1.664E-06  nbox= 11  T=  711.11K
     iter. #   164  RMS(g-h-1)= 1.588E-06  nbox= 12  T=  711.11K
     iter. #   165  RMS(g-h-1)= 1.556E-06  nbox= 13  T=  711.11K
     iter. #   166  RMS(g-h-1)= 1.496E-06  nbox= 14  T=  711.11K
     iter. #   167  RMS(g-h-1)= 1.435E-06  nbox= 15  T=  711.11K
     iter. #   168  RMS(g-h-1)= 1.424E-06  nbox= 16  T=  711.11K
     iter. #   169  RMS(g-h-1)= 1.358E-06  nbox= 17  T=  711.11K
     iter. #   170  RMS(g-h-1)= 1.325E-06  nbox= 18  T=  711.11K
     iter. #   171  RMS(g-h-1)= 1.311E-06  nbox= 19  T=  711.11K
     iter. #   172  RMS(g-h-1)= 1.262E-06  nbox= 20  T=  711.11K
     iter. #   173  RMS(g-h-1)= 1.251E-06  nbox= 20  T=  711.11K
     iter. #   174  RMS(g-h-1)= 1.168E-06  nbox= 20  T=  711.11K
     iter. #   175  RMS(g-h-1)= 1.162E-06  nbox= 20  T=  711.11K
     iter. #   176  RMS(g-h-1)= 1.092E-06  nbox= 20  T=  711.11K
     iter. #   177  RMS(g-h-1)= 1.069E-06  nbox= 20  T=  711.11K
     iter. #   178  RMS(g-h-1)= 9.620E-07  nbox= 20  T=  474.07K
     iter. #   179  RMS(g-h-1)= 3.125E-04  nbox= 20  T=  474.07K
     iter. #   180  RMS(g-h-1)= 2.807E-04  nbox=  1  T=  474.07K
     iter. #   181  RMS(g-h-1)= 2.500E-04  nbox=  2  T=  474.07K
     iter. #   182  RMS(g-h-1)= 2.238E-04  nbox=  3  T=  474.07K
     iter. #   183  RMS(g-h-1)= 2.015E-04  nbox=  4  T=  474.07K
     iter. #   184  RMS(g-h-1)= 6.304E-05  nbox=  5  T=  474.07K
     iter. #   185  RMS(g-h-1)= 5.871E-05  nbox=  6  T=  474.07K
     iter. #   186  RMS(g-h-1)= 5.246E-05  nbox=  7  T=  474.07K
     iter. #   187  RMS(g-h-1)= 4.781E-05  nbox=  8  T=  474.07K
     iter. #   188  RMS(g-h-1)= 4.782E-05  nbox=  9  T=  474.07K
     iter. #   189  RMS(g-h-1)= 4.421E-05  nbox= 10  T=  474.07K
     iter. #   190  RMS(g-h-1)= 4.078E-05  nbox= 11  T=  474.07K
     iter. #   191  RMS(g-h-1)= 3.818E-05  nbox= 12  T=  474.07K
     iter. #   192  RMS(g-h-1)= 3.483E-05  nbox= 13  T=  474.07K
     iter. #   193  RMS(g-h-1)= 3.276E-05  nbox= 14  T=  474.07K
     iter. #   194  RMS(g-h-1)= 2.938E-05  nbox= 15  T=  474.07K
     iter. #   195  RMS(g-h-1)= 3.415E-05  nbox= 16  T=  474.07K
     iter. #   196  RMS(g-h-1)= 2.383E-05  nbox= 17  T=  474.07K
     iter. #   197  RMS(g-h-1)= 2.041E-05  nbox= 18  T=  474.07K
     iter. #   198  RMS(g-h-1)= 1.672E-05  nbox= 19  T=  474.07K
     iter. #   199  RMS(g-h-1)= 1.975E-05  nbox= 20  T=  474.07K
     iter. #   200  RMS(g-h-1)= 1.172E-05  nbox= 20  T=  474.07K
     iter. #   201  RMS(g-h-1)= 1.070E-05  nbox= 20  T=  474.07K
     iter. #   202  RMS(g-h-1)= 8.270E-06  nbox= 20  T=  474.07K
     iter. #   203  RMS(g-h-1)= 7.151E-06  nbox= 20  T=  474.07K
     iter. #   204  RMS(g-h-1)= 8.322E-06  nbox= 20  T=  474.07K
     iter. #   205  RMS(g-h-1)= 8.061E-06  nbox= 20  T=  474.07K
     iter. #   206  RMS(g-h-1)= 5.833E-06  nbox= 20  T=  474.07K
     iter. #   207  RMS(g-h-1)= 4.317E-06  nbox= 20  T=  474.07K
     iter. #   208  RMS(g-h-1)= 3.904E-06  nbox= 20  T=  474.07K
     iter. #   209  RMS(g-h-1)= 3.032E-06  nbox= 20  T=  474.07K
     iter. #   210  RMS(g-h-1)= 3.017E-06  nbox= 20  T=  474.07K
     iter. #   211  RMS(g-h-1)= 3.005E-06  nbox= 20  T=  474.07K
     iter. #   212  RMS(g-h-1)= 2.628E-06  nbox= 20  T=  474.07K
     iter. #   213  RMS(g-h-1)= 2.564E-06  nbox= 20  T=  474.07K
     iter. #   214  RMS(g-h-1)= 2.316E-06  nbox= 20  T=  474.07K
     iter. #   215  RMS(g-h-1)= 2.255E-06  nbox= 20  T=  474.07K
     iter. #   216  RMS(g-h-1)= 2.199E-06  nbox= 20  T=  474.07K
     iter. #   217  RMS(g-h-1)= 2.171E-06  nbox= 20  T=  474.07K
     iter. #   218  RMS(g-h-1)= 2.116E-06  nbox= 20  T=  474.07K
     iter. #   219  RMS(g-h-1)= 2.054E-06  nbox= 20  T=  474.07K
     iter. #   220  RMS(g-h-1)= 2.000E-06  nbox= 20  T=  474.07K
     iter. #   221  RMS(g-h-1)= 1.861E-06  nbox= 20  T=  474.07K
     iter. #   222  RMS(g-h-1)= 1.826E-06  nbox= 20  T=  474.07K
     iter. #   223  RMS(g-h-1)= 1.816E-06  nbox= 20  T=  474.07K
     iter. #   224  RMS(g-h-1)= 1.787E-06  nbox= 20  T=  474.07K
     iter. #   225  RMS(g-h-1)= 1.709E-06  nbox= 20  T=  474.07K
     iter. #   226  RMS(g-h-1)= 1.686E-06  nbox= 20  T=  474.07K
     iter. #   227  RMS(g-h-1)= 1.680E-06  nbox= 20  T=  474.07K
     iter. #   228  RMS(g-h-1)= 1.610E-06  nbox= 20  T=  474.07K
     iter. #   229  RMS(g-h-1)= 1.624E-06  nbox= 20  T=  474.07K
     iter. #   230  RMS(g-h-1)= 1.571E-06  nbox= 20  T=  474.07K
     iter. #   231  RMS(g-h-1)= 1.586E-06  nbox= 20  T=  474.07K
     iter. #   232  RMS(g-h-1)= 1.537E-06  nbox= 20  T=  474.07K
     iter. #   233  RMS(g-h-1)= 1.695E-06  nbox= 20  T=  474.07K
     iter. #   234  RMS(g-h-1)= 1.500E-06  nbox= 20  T=  474.07K
     iter. #   235  RMS(g-h-1)= 1.452E-06  nbox= 20  T=  474.07K
     iter. #   236  RMS(g-h-1)= 1.409E-06  nbox= 20  T=  474.07K
     iter. #   237  RMS(g-h-1)= 1.426E-06  nbox= 20  T=  474.07K
     iter. #   238  RMS(g-h-1)= 1.338E-06  nbox= 20  T=  474.07K
     iter. #   239  RMS(g-h-1)= 1.322E-06  nbox= 20  T=  474.07K
     iter. #   240  RMS(g-h-1)= 1.350E-06  nbox= 20  T=  474.07K
     iter. #   241  RMS(g-h-1)= 1.261E-06  nbox= 20  T=  474.07K
     iter. #   242  RMS(g-h-1)= 1.243E-06  nbox= 20  T=  474.07K
     iter. #   243  RMS(g-h-1)= 2.010E-06  nbox= 20  T=  474.07K
     iter. #   244  RMS(g-h-1)= 1.901E-06  nbox=  1  T=  474.07K
     iter. #   245  RMS(g-h-1)= 1.798E-06  nbox=  2  T=  474.07K
     iter. #   246  RMS(g-h-1)= 1.711E-06  nbox=  3  T=  474.07K
     iter. #   247  RMS(g-h-1)= 1.637E-06  nbox=  4  T=  474.07K
     iter. #   248  RMS(g-h-1)= 1.177E-06  nbox=  5  T=  474.07K
     iter. #   249  RMS(g-h-1)= 1.171E-06  nbox=  6  T=  474.07K
     iter. #   250  RMS(g-h-1)= 1.132E-06  nbox=  7  T=  474.07K
     iter. #   251  RMS(g-h-1)= 1.234E-06  nbox=  8  T=  474.07K
     iter. #   252  RMS(g-h-1)= 1.152E-06  nbox=  9  T=  474.07K
     iter. #   253  RMS(g-h-1)= 1.108E-06  nbox= 10  T=  474.07K
     iter. #   254  RMS(g-h-1)= 1.093E-06  nbox= 11  T=  474.07K
     iter. #   255  RMS(g-h-1)= 1.096E-06  nbox= 12  T=  474.07K
     iter. #   256  RMS(g-h-1)= 1.026E-06  nbox= 13  T=  474.07K
     iter. #   257  RMS(g-h-1)= 1.078E-06  nbox= 14  T=  474.07K
     iter. #   258  RMS(g-h-1)= 9.788E-07  nbox= 15  T=  316.05K
     iter. #   259  RMS(g-h-1)= 3.983E-04  nbox= 16  T=  316.05K
     iter. #   260  RMS(g-h-1)= 3.623E-04  nbox=  1  T=  316.05K
     iter. #   261  RMS(g-h-1)= 3.266E-04  nbox=  2  T=  316.05K
     iter. #   262  RMS(g-h-1)= 2.952E-04  nbox=  3  T=  316.05K
     iter. #   263  RMS(g-h-1)= 2.681E-04  nbox=  4  T=  316.05K
     iter. #   264  RMS(g-h-1)= 8.736E-05  nbox=  5  T=  316.05K
     iter. #   265  RMS(g-h-1)= 8.217E-05  nbox=  6  T=  316.05K
     iter. #   266  RMS(g-h-1)= 6.448E-05  nbox=  7  T=  316.05K
     iter. #   267  RMS(g-h-1)= 6.256E-05  nbox=  8  T=  316.05K
     iter. #   268  RMS(g-h-1)= 6.082E-05  nbox=  9  T=  316.05K
     iter. #   269  RMS(g-h-1)= 5.814E-05  nbox= 10  T=  316.05K
     iter. #   270  RMS(g-h-1)= 5.651E-05  nbox= 11  T=  316.05K
     iter. #   271  RMS(g-h-1)= 4.997E-05  nbox= 12  T=  316.05K
     iter. #   272  RMS(g-h-1)= 4.638E-05  nbox= 13  T=  316.05K
     iter. #   273  RMS(g-h-1)= 4.262E-05  nbox= 14  T=  316.05K
     iter. #   274  RMS(g-h-1)= 3.999E-05  nbox= 15  T=  316.05K
     iter. #   275  RMS(g-h-1)= 6.187E-05  nbox= 16  T=  316.05K
     iter. #   276  RMS(g-h-1)= 5.314E-05  nbox=  1  T=  316.05K
     iter. #   277  RMS(g-h-1)= 4.642E-05  nbox=  2  T=  316.05K
     iter. #   278  RMS(g-h-1)= 4.204E-05  nbox=  3  T=  316.05K
     iter. #   279  RMS(g-h-1)= 3.926E-05  nbox=  4  T=  316.05K
     iter. #   280  RMS(g-h-1)= 2.981E-05  nbox=  5  T=  316.05K
     iter. #   281  RMS(g-h-1)= 2.855E-05  nbox=  6  T=  316.05K
     iter. #   282  RMS(g-h-1)= 2.811E-05  nbox=  7  T=  316.05K
     iter. #   283  RMS(g-h-1)= 2.714E-05  nbox=  8  T=  316.05K
     iter. #   284  RMS(g-h-1)= 2.383E-05  nbox=  9  T=  316.05K
     iter. #   285  RMS(g-h-1)= 1.765E-05  nbox= 10  T=  316.05K
     iter. #   286  RMS(g-h-1)= 1.301E-05  nbox= 11  T=  316.05K
     iter. #   287  RMS(g-h-1)= 1.066E-05  nbox= 12  T=  316.05K
     iter. #   288  RMS(g-h-1)= 8.225E-06  nbox= 13  T=  316.05K
     iter. #   289  RMS(g-h-1)= 5.853E-06  nbox= 14  T=  316.05K
     iter. #   290  RMS(g-h-1)= 5.101E-06  nbox= 15  T=  316.05K
     iter. #   291  RMS(g-h-1)= 4.846E-06  nbox= 16  T=  316.05K
     iter. #   292  RMS(g-h-1)= 4.659E-06  nbox= 17  T=  316.05K
     iter. #   293  RMS(g-h-1)= 3.943E-06  nbox= 18  T=  316.05K
     iter. #   294  RMS(g-h-1)= 3.417E-06  nbox= 19  T=  316.05K
     iter. #   295  RMS(g-h-1)= 3.244E-06  nbox= 20  T=  316.05K
     iter. #   296  RMS(g-h-1)= 3.206E-06  nbox= 20  T=  316.05K
     iter. #   297  RMS(g-h-1)= 3.026E-06  nbox= 20  T=  316.05K
     iter. #   298  RMS(g-h-1)= 2.806E-06  nbox= 20  T=  316.05K
     iter. #   299  RMS(g-h-1)= 2.544E-06  nbox= 20  T=  316.05K
     iter. #   300  RMS(g-h-1)= 2.679E-06  nbox= 20  T=  316.05K
     iter. #   301  RMS(g-h-1)= 2.441E-06  nbox= 20  T=  316.05K
     iter. #   302  RMS(g-h-1)= 2.310E-06  nbox= 20  T=  316.05K
     iter. #   303  RMS(g-h-1)= 2.244E-06  nbox= 20  T=  316.05K
     iter. #   304  RMS(g-h-1)= 2.380E-06  nbox= 20  T=  316.05K
     iter. #   305  RMS(g-h-1)= 2.181E-06  nbox= 20  T=  316.05K
     iter. #   306  RMS(g-h-1)= 2.160E-06  nbox= 20  T=  316.05K
     iter. #   307  RMS(g-h-1)= 2.120E-06  nbox= 20  T=  316.05K
     iter. #   308  RMS(g-h-1)= 2.087E-06  nbox= 20  T=  316.05K
     iter. #   309  RMS(g-h-1)= 2.049E-06  nbox= 20  T=  316.05K
     iter. #   310  RMS(g-h-1)= 1.929E-06  nbox= 20  T=  316.05K
     iter. #   311  RMS(g-h-1)= 1.865E-06  nbox= 20  T=  316.05K
     iter. #   312  RMS(g-h-1)= 1.809E-06  nbox= 20  T=  316.05K
     iter. #   313  RMS(g-h-1)= 1.769E-06  nbox= 20  T=  316.05K
     iter. #   314  RMS(g-h-1)= 1.733E-06  nbox= 20  T=  316.05K
     iter. #   315  RMS(g-h-1)= 1.711E-06  nbox= 20  T=  316.05K
     iter. #   316  RMS(g-h-1)= 1.653E-06  nbox= 20  T=  316.05K
     iter. #   317  RMS(g-h-1)= 1.639E-06  nbox= 20  T=  316.05K
     iter. #   318  RMS(g-h-1)= 1.629E-06  nbox= 20  T=  316.05K
     iter. #   319  RMS(g-h-1)= 1.620E-06  nbox= 20  T=  316.05K
     iter. #   320  RMS(g-h-1)= 1.599E-06  nbox= 20  T=  316.05K
     iter. #   321  RMS(g-h-1)= 1.597E-06  nbox= 20  T=  316.05K
     iter. #   322  RMS(g-h-1)= 1.589E-06  nbox= 20  T=  316.05K
     iter. #   323  RMS(g-h-1)= 1.553E-06  nbox= 20  T=  316.05K
     iter. #   324  RMS(g-h-1)= 1.539E-06  nbox= 20  T=  316.05K
     iter. #   325  RMS(g-h-1)= 1.550E-06  nbox= 20  T=  316.05K
     iter. #   326  RMS(g-h-1)= 1.477E-06  nbox= 20  T=  316.05K
     iter. #   327  RMS(g-h-1)= 1.444E-06  nbox= 20  T=  316.05K
     iter. #   328  RMS(g-h-1)= 1.614E-06  nbox= 20  T=  316.05K
     iter. #   329  RMS(g-h-1)= 1.380E-06  nbox= 20  T=  316.05K
     iter. #   330  RMS(g-h-1)= 1.351E-06  nbox= 20  T=  316.05K
     iter. #   331  RMS(g-h-1)= 1.308E-06  nbox= 20  T=  316.05K
     iter. #   332  RMS(g-h-1)= 1.286E-06  nbox= 20  T=  316.05K
     iter. #   333  RMS(g-h-1)= 1.262E-06  nbox= 20  T=  316.05K
     iter. #   334  RMS(g-h-1)= 1.256E-06  nbox= 20  T=  316.05K
     iter. #   335  RMS(g-h-1)= 1.236E-06  nbox= 20  T=  316.05K
     iter. #   336  RMS(g-h-1)= 1.260E-06  nbox= 20  T=  316.05K
     iter. #   337  RMS(g-h-1)= 1.139E-06  nbox= 20  T=  316.05K
     iter. #   338  RMS(g-h-1)= 1.137E-06  nbox= 20  T=  316.05K
     iter. #   339  RMS(g-h-1)= 1.058E-06  nbox= 20  T=  316.05K
     iter. #   340  RMS(g-h-1)= 1.042E-06  nbox= 20  T=  316.05K
     iter. #   341  RMS(g-h-1)= 1.025E-06  nbox= 20  T=  316.05K
     iter. #   342  RMS(g-h-1)= 1.022E-06  nbox= 20  T=  316.05K
     iter. #   343  RMS(g-h-1)= 9.956E-07  nbox= 20  T=  300.00K
     iter. #   344  RMS(g-h-1)= 1.202E-04  nbox= 20  T=  300.00K
     iter. #   345  RMS(g-h-1)= 1.018E-04  nbox=  1  T=  300.00K
     iter. #   346  RMS(g-h-1)= 8.506E-05  nbox=  2  T=  300.00K
     iter. #   347  RMS(g-h-1)= 7.177E-05  nbox=  3  T=  300.00K
     iter. #   348  RMS(g-h-1)= 6.129E-05  nbox=  4  T=  300.00K
     iter. #   349  RMS(g-h-1)= 1.621E-05  nbox=  5  T=  300.00K
     iter. #   350  RMS(g-h-1)= 1.488E-05  nbox=  6  T=  300.00K
     iter. #   351  RMS(g-h-1)= 1.286E-05  nbox=  7  T=  300.00K
     iter. #   352  RMS(g-h-1)= 1.147E-05  nbox=  8  T=  300.00K
     iter. #   353  RMS(g-h-1)= 1.029E-05  nbox=  9  T=  300.00K
     iter. #   354  RMS(g-h-1)= 9.680E-06  nbox= 10  T=  300.00K
     iter. #   355  RMS(g-h-1)= 8.609E-06  nbox= 11  T=  300.00K
     iter. #   356  RMS(g-h-1)= 8.126E-06  nbox= 12  T=  300.00K
     iter. #   357  RMS(g-h-1)= 6.525E-06  nbox= 13  T=  300.00K
     iter. #   358  RMS(g-h-1)= 5.850E-06  nbox= 14  T=  300.00K
     iter. #   359  RMS(g-h-1)= 5.355E-06  nbox= 15  T=  300.00K
     iter. #   360  RMS(g-h-1)= 4.696E-06  nbox= 16  T=  300.00K
     iter. #   361  RMS(g-h-1)= 3.912E-06  nbox= 17  T=  300.00K
     iter. #   362  RMS(g-h-1)= 3.654E-06  nbox= 18  T=  300.00K
     iter. #   363  RMS(g-h-1)= 3.074E-06  nbox= 19  T=  300.00K
     iter. #   364  RMS(g-h-1)= 1.766E-06  nbox= 20  T=  300.00K
     iter. #   365  RMS(g-h-1)= 1.497E-06  nbox= 20  T=  300.00K
     iter. #   366  RMS(g-h-1)= 1.483E-06  nbox= 20  T=  300.00K
     iter. #   367  RMS(g-h-1)= 1.544E-06  nbox= 20  T=  300.00K
     iter. #   368  RMS(g-h-1)= 1.244E-06  nbox= 20  T=  300.00K
     iter. #   369  RMS(g-h-1)= 1.185E-06  nbox= 20  T=  300.00K
     iter. #   370  RMS(g-h-1)= 1.028E-06  nbox= 20  T=  300.00K
     iter. #   371  RMS(g-h-1)= 1.010E-06  nbox= 20  T=  300.00K
     iter. #   372  RMS(g-h-1)= 9.577E-07  nbox= 20  T=  300.00K
     iter. #   373  RMS(g-h-1)= 9.207E-07  nbox= 20  T=  300.00K
     iter. #   374  RMS(g-h-1)= 8.910E-07  nbox= 20  T=  300.00K
     iter. #   375  RMS(g-h-1)= 8.647E-07  nbox= 20  T=  300.00K
     iter. #   376  RMS(g-h-1)= 8.629E-07  nbox= 20  T=  300.00K
     iter. #   377  RMS(g-h-1)= 8.694E-07  nbox= 20  T=  300.00K
     iter. #   378  RMS(g-h-1)= 8.447E-07  nbox= 20  T=  300.00K
     iter. #   379  RMS(g-h-1)= 8.583E-07  nbox= 20  T=  300.00K
     iter. #   380  RMS(g-h-1)= 8.469E-07  nbox= 20  T=  300.00K
     iter. #   381  RMS(g-h-1)= 8.163E-07  nbox= 20  T=  300.00K
     iter. #   382  RMS(g-h-1)= 8.036E-07  nbox= 20  T=  300.00K
     iter. #   383  RMS(g-h-1)= 7.872E-07  nbox= 20  T=  300.00K
     iter. #   384  RMS(g-h-1)= 7.798E-07  nbox= 20  T=  300.00K
     iter. #   385  RMS(g-h-1)= 7.746E-07  nbox= 20  T=  300.00K
     iter. #   386  RMS(g-h-1)= 7.477E-07  nbox= 20  T=  300.00K
     iter. #   387  RMS(g-h-1)= 7.370E-07  nbox= 20  T=  300.00K
     iter. #   388  RMS(g-h-1)= 7.223E-07  nbox= 20  T=  300.00K
     iter. #   389  RMS(g-h-1)= 7.196E-07  nbox= 20  T=  300.00K
     iter. #   390  RMS(g-h-1)= 6.898E-07  nbox= 20  T=  300.00K
     iter. #   391  RMS(g-h-1)= 6.808E-07  nbox= 20  T=  300.00K
     iter. #   392  RMS(g-h-1)= 6.752E-07  nbox= 20  T=  300.00K
     iter. #   393  RMS(g-h-1)= 6.570E-07  nbox= 20  T=  300.00K
     iter. #   394  RMS(g-h-1)= 6.473E-07  nbox= 20  T=  300.00K
     iter. #   395  RMS(g-h-1)= 6.400E-07  nbox= 20  T=  300.00K
     iter. #   396  RMS(g-h-1)= 6.082E-07  nbox= 20  T=  300.00K
     iter. #   397  RMS(g-h-1)= 5.968E-07  nbox= 20  T=  300.00K
     iter. #   398  RMS(g-h-1)= 6.202E-07  nbox= 20  T=  300.00K
     iter. #   399  RMS(g-h-1)= 5.872E-07  nbox= 20  T=  300.00K
     iter. #   400  RMS(g-h-1)= 5.524E-07  nbox= 20  T=  300.00K
     iter. #   401  RMS(g-h-1)= 5.497E-07  nbox= 20  T=  300.00K
     iter. #   402  RMS(g-h-1)= 5.302E-07  nbox= 20  T=  300.00K
     iter. #   403  RMS(g-h-1)= 5.445E-07  nbox= 20  T=  300.00K
     iter. #   404  RMS(g-h-1)= 5.735E-07  nbox= 20  T=  300.00K
     iter. #   405  RMS(g-h-1)= 5.156E-07  nbox= 20  T=  300.00K
     iter. #   406  RMS(g-h-1)= 5.063E-07  nbox= 20  T=  300.00K
     iter. #   407  RMS(g-h-1)= 4.942E-07  nbox= 20  T=  300.00K
     iter. #   408  RMS(g-h-1)= 4.909E-07  nbox= 20  T=  300.00K
     iter. #   409  RMS(g-h-1)= 4.937E-07  nbox= 20  T=  300.00K
     iter. #   410  RMS(g-h-1)= 5.285E-07  nbox= 20  T=  300.00K
     iter. #   411  RMS(g-h-1)= 7.491E-07  nbox= 20  T=  300.00K
     iter. #   412  RMS(g-h-1)= 7.261E-07  nbox=  1  T=  300.00K
     iter. #   413  RMS(g-h-1)= 7.054E-07  nbox=  2  T=  300.00K
     iter. #   414  RMS(g-h-1)= 6.876E-07  nbox=  3  T=  300.00K
     iter. #   415  RMS(g-h-1)= 6.720E-07  nbox=  4  T=  300.00K
     iter. #   416  RMS(g-h-1)= 4.560E-07  nbox=  5  T=  300.00K
     iter. #   417  RMS(g-h-1)= 4.355E-07  nbox=  6  T=  300.00K
     iter. #   418  RMS(g-h-1)= 4.487E-07  nbox=  7  T=  300.00K
     iter. #   419  RMS(g-h-1)= 4.074E-07  nbox=  8  T=  300.00K
     iter. #   420  RMS(g-h-1)= 4.197E-07  nbox=  9  T=  300.00K
     iter. #   421  RMS(g-h-1)= 3.907E-07  nbox= 10  T=  300.00K
     iter. #   422  RMS(g-h-1)= 3.903E-07  nbox= 11  T=  300.00K
     iter. #   423  RMS(g-h-1)= 3.844E-07  nbox= 12  T=  300.00K
     iter. #   424  RMS(g-h-1)= 3.962E-07  nbox= 13  T=  300.00K
     iter. #   425  RMS(g-h-1)= 4.231E-07  nbox= 14  T=  300.00K
     iter. #   426  RMS(g-h-1)= 4.192E-07  nbox= 15  T=  300.00K
     iter. #   427  RMS(g-h-1)= 4.092E-07  nbox= 16  T=  300.00K
     iter. #   428  RMS(g-h-1)= 4.136E-07  nbox= 17  T=  300.00K
     iter. #   429  RMS(g-h-1)= 3.755E-07  nbox= 18  T=  300.00K
     iter. #   430  RMS(g-h-1)= 3.656E-07  nbox= 19  T=  300.00K
     iter. #   431  RMS(g-h-1)= 3.807E-07  nbox= 20  T=  300.00K
     iter. #   432  RMS(g-h-1)= 3.371E-07  nbox= 20  T=  300.00K
     iter. #   433  RMS(g-h-1)= 3.840E-07  nbox= 20  T=  300.00K
     iter. #   434  RMS(g-h-1)= 3.117E-07  nbox= 20  T=  300.00K
     iter. #   435  RMS(g-h-1)= 2.953E-07  nbox= 20  T=  300.00K
     iter. #   436  RMS(g-h-1)= 2.834E-07  nbox= 20  T=  300.00K
     iter. #   437  RMS(g-h-1)= 2.700E-07  nbox= 20  T=  300.00K
     iter. #   438  RMS(g-h-1)= 2.733E-07  nbox= 20  T=  300.00K
     iter. #   439  RMS(g-h-1)= 2.922E-07  nbox= 20  T=  300.00K
     iter. #   440  RMS(g-h-1)= 2.522E-07  nbox= 20  T=  300.00K
     iter. #   441  RMS(g-h-1)= 2.514E-07  nbox= 20  T=  300.00K
     iter. #   442  RMS(g-h-1)= 2.391E-07  nbox= 20  T=  300.00K
     iter. #   443  RMS(g-h-1)= 2.340E-07  nbox= 20  T=  300.00K
     iter. #   444  RMS(g-h-1)= 2.316E-07  nbox= 20  T=  300.00K
     iter. #   445  RMS(g-h-1)= 2.232E-07  nbox= 20  T=  300.00K
     iter. #   446  RMS(g-h-1)= 2.204E-07  nbox= 20  T=  300.00K
     iter. #   447  RMS(g-h-1)= 2.158E-07  nbox= 20  T=  300.00K
     iter. #   448  RMS(g-h-1)= 2.348E-07  nbox= 20  T=  300.00K
     iter. #   449  RMS(g-h-1)= 2.081E-07  nbox= 20  T=  300.00K
     iter. #   450  RMS(g-h-1)= 2.459E-07  nbox= 20  T=  300.00K
     iter. #   451  RMS(g-h-1)= 2.003E-07  nbox= 20  T=  300.00K
     iter. #   452  RMS(g-h-1)= 1.979E-07  nbox= 20  T=  300.00K
     iter. #   453  RMS(g-h-1)= 1.975E-07  nbox= 20  T=  300.00K
     iter. #   454  RMS(g-h-1)= 2.110E-07  nbox= 20  T=  300.00K
     iter. #   455  RMS(g-h-1)= 2.046E-07  nbox= 20  T=  300.00K
     iter. #   456  RMS(g-h-1)= 1.983E-07  nbox= 20  T=  300.00K
     iter. #   457  RMS(g-h-1)= 1.895E-07  nbox= 20  T=  300.00K
     iter. #   458  RMS(g-h-1)= 1.869E-07  nbox= 20  T=  300.00K
     iter. #   459  RMS(g-h-1)= 1.854E-07  nbox= 20  T=  300.00K
     iter. #   460  RMS(g-h-1)= 2.038E-07  nbox= 20  T=  300.00K
     iter. #   461  RMS(g-h-1)= 1.867E-07  nbox= 20  T=  300.00K
     iter. #   462  RMS(g-h-1)= 1.831E-07  nbox= 20  T=  300.00K
     iter. #   463  RMS(g-h-1)= 1.883E-07  nbox= 20  T=  300.00K
     iter. #   464  RMS(g-h-1)= 1.927E-07  nbox= 20  T=  300.00K
     iter. #   465  RMS(g-h-1)= 1.867E-07  nbox= 20  T=  300.00K
     iter. #   466  RMS(g-h-1)= 1.895E-07  nbox= 20  T=  300.00K
     iter. #   467  RMS(g-h-1)= 1.744E-07  nbox= 20  T=  300.00K
     iter. #   468  RMS(g-h-1)= 1.791E-07  nbox= 20  T=  300.00K
     iter. #   469  RMS(g-h-1)= 1.691E-07  nbox= 20  T=  300.00K
     iter. #   470  RMS(g-h-1)= 1.700E-07  nbox= 20  T=  300.00K
     iter. #   471  RMS(g-h-1)= 1.676E-07  nbox= 20  T=  300.00K
     iter. #   472  RMS(g-h-1)= 1.650E-07  nbox= 20  T=  300.00K
     iter. #   473  RMS(g-h-1)= 1.703E-07  nbox= 20  T=  300.00K
     iter. #   474  RMS(g-h-1)= 1.576E-07  nbox= 20  T=  300.00K
     iter. #   475  RMS(g-h-1)= 1.560E-07  nbox= 20  T=  300.00K
     iter. #   476  RMS(g-h-1)= 1.541E-07  nbox= 20  T=  300.00K
     iter. #   477  RMS(g-h-1)= 1.524E-07  nbox= 20  T=  300.00K
     iter. #   478  RMS(g-h-1)= 1.508E-07  nbox= 20  T=  300.00K
     iter. #   479  RMS(g-h-1)= 1.493E-07  nbox= 20  T=  300.00K
     iter. #   480  RMS(g-h-1)= 1.485E-07  nbox= 20  T=  300.00K
     iter. #   481  RMS(g-h-1)= 1.474E-07  nbox= 20  T=  300.00K
     iter. #   482  RMS(g-h-1)= 1.464E-07  nbox= 20  T=  300.00K
     iter. #   483  RMS(g-h-1)= 1.459E-07  nbox= 20  T=  300.00K
     iter. #   484  RMS(g-h-1)= 1.437E-07  nbox= 20  T=  300.00K
     iter. #   485  RMS(g-h-1)= 1.428E-07  nbox= 20  T=  300.00K
     iter. #   486  RMS(g-h-1)= 1.407E-07  nbox= 20  T=  300.00K
     iter. #   487  RMS(g-h-1)= 1.400E-07  nbox= 20  T=  300.00K
     iter. #   488  RMS(g-h-1)= 1.381E-07  nbox= 20  T=  300.00K
     iter. #   489  RMS(g-h-1)= 1.376E-07  nbox= 20  T=  300.00K
     iter. #   490  RMS(g-h-1)= 1.360E-07  nbox= 20  T=  300.00K
     iter. #   491  RMS(g-h-1)= 1.351E-07  nbox= 20  T=  300.00K
     iter. #   492  RMS(g-h-1)= 1.329E-07  nbox= 20  T=  300.00K
     iter. #   493  RMS(g-h-1)= 1.307E-07  nbox= 20  T=  300.00K
     iter. #   494  RMS(g-h-1)= 1.275E-07  nbox= 20  T=  300.00K
     iter. #   495  RMS(g-h-1)= 1.272E-07  nbox= 20  T=  300.00K
     iter. #   496  RMS(g-h-1)= 1.250E-07  nbox= 20  T=  300.00K
     iter. #   497  RMS(g-h-1)= 1.237E-07  nbox= 20  T=  300.00K
     iter. #   498  RMS(g-h-1)= 1.233E-07  nbox= 20  T=  300.00K
     iter. #   499  RMS(g-h-1)= 1.225E-07  nbox= 20  T=  300.00K
     iter. #   500  RMS(g-h-1)= 1.216E-07  nbox= 20  T=  300.00K
     iter. #   501  RMS(g-h-1)= 1.195E-07  nbox= 20  T=  300.00K
     iter. #   502  RMS(g-h-1)= 1.188E-07  nbox= 20  T=  300.00K
     iter. #   503  RMS(g-h-1)= 1.181E-07  nbox= 20  T=  300.00K
     iter. #   504  RMS(g-h-1)= 1.163E-07  nbox= 20  T=  300.00K
     iter. #   505  RMS(g-h-1)= 1.156E-07  nbox= 20  T=  300.00K
     iter. #   506  RMS(g-h-1)= 1.129E-07  nbox= 20  T=  300.00K
     iter. #   507  RMS(g-h-1)= 1.124E-07  nbox= 20  T=  300.00K
     iter. #   508  RMS(g-h-1)= 1.109E-07  nbox= 20  T=  300.00K
     iter. #   509  RMS(g-h-1)= 1.098E-07  nbox= 20  T=  300.00K
     iter. #   510  RMS(g-h-1)= 1.094E-07  nbox= 20  T=  300.00K
     iter. #   511  RMS(g-h-1)= 1.097E-07  nbox= 20  T=  300.00K
     iter. #   512  RMS(g-h-1)= 1.067E-07  nbox= 20  T=  300.00K
     iter. #   513  RMS(g-h-1)= 1.062E-07  nbox= 20  T=  300.00K
     iter. #   514  RMS(g-h-1)= 1.056E-07  nbox= 20  T=  300.00K
     iter. #   515  RMS(g-h-1)= 1.048E-07  nbox= 20  T=  300.00K
     iter. #   516  RMS(g-h-1)= 1.044E-07  nbox= 20  T=  300.00K
     iter. #   517  RMS(g-h-1)= 1.033E-07  nbox= 20  T=  300.00K
     iter. #   518  RMS(g-h-1)= 1.031E-07  nbox= 20  T=  300.00K
     iter. #   519  RMS(g-h-1)= 1.023E-07  nbox= 20  T=  300.00K
     iter. #   520  RMS(g-h-1)= 1.007E-07  nbox= 20  T=  300.00K
     iter. #   521  RMS(g-h-1)= 1.000E-07  nbox= 20  T=  300.00K
     iter. #   522  RMS(g-h-1)= 9.901E-08  nbox= 20  T=  300.00K
     iter. #   523  RMS(g-h-1)= 9.836E-08  nbox= 20  T=  300.00K
     iter. #   524  RMS(g-h-1)= 9.782E-08  nbox= 20  T=  300.00K
     iter. #   525  RMS(g-h-1)= 9.689E-08  nbox= 20  T=  300.00K
     iter. #   526  RMS(g-h-1)= 9.592E-08  nbox= 20  T=  300.00K
     iter. #   527  RMS(g-h-1)= 9.581E-08  nbox= 20  T=  300.00K
     iter. #   528  RMS(g-h-1)= 9.247E-08  nbox= 20  T=  300.00K
     iter. #   529  RMS(g-h-1)= 9.065E-08  nbox= 20  T=  300.00K
     iter. #   530  RMS(g-h-1)= 9.002E-08  nbox= 20  T=  300.00K
     iter. #   531  RMS(g-h-1)= 8.874E-08  nbox= 20  T=  300.00K
     iter. #   532  RMS(g-h-1)= 8.799E-08  nbox= 20  T=  300.00K
     iter. #   533  RMS(g-h-1)= 8.717E-08  nbox= 20  T=  300.00K
     iter. #   534  RMS(g-h-1)= 8.685E-08  nbox= 20  T=  300.00K
     iter. #   535  RMS(g-h-1)= 8.567E-08  nbox= 20  T=  300.00K
     iter. #   536  RMS(g-h-1)= 8.571E-08  nbox= 20  T=  300.00K
     iter. #   537  RMS(g-h-1)= 8.442E-08  nbox= 20  T=  300.00K
     iter. #   538  RMS(g-h-1)= 8.343E-08  nbox= 20  T=  300.00K
     iter. #   539  RMS(g-h-1)= 8.312E-08  nbox= 20  T=  300.00K
     iter. #   540  RMS(g-h-1)= 8.249E-08  nbox= 20  T=  300.00K
     iter. #   541  RMS(g-h-1)= 8.237E-08  nbox= 20  T=  300.00K
     iter. #   542  RMS(g-h-1)= 8.220E-08  nbox= 20  T=  300.00K
     iter. #   543  RMS(g-h-1)= 8.228E-08  nbox= 20  T=  300.00K
     iter. #   544  RMS(g-h-1)= 8.169E-08  nbox= 20  T=  300.00K
     iter. #   545  RMS(g-h-1)= 8.059E-08  nbox= 20  T=  300.00K
     iter. #   546  RMS(g-h-1)= 7.992E-08  nbox= 20  T=  300.00K
     iter. #   547  RMS(g-h-1)= 7.889E-08  nbox= 20  T=  300.00K
     iter. #   548  RMS(g-h-1)= 7.859E-08  nbox= 20  T=  300.00K
     iter. #   549  RMS(g-h-1)= 7.802E-08  nbox= 20  T=  300.00K
     iter. #   550  RMS(g-h-1)= 7.670E-08  nbox= 20  T=  300.00K
     iter. #   551  RMS(g-h-1)= 7.631E-08  nbox= 20  T=  300.00K
     iter. #   552  RMS(g-h-1)= 7.532E-08  nbox= 20  T=  300.00K
     iter. #   553  RMS(g-h-1)= 7.498E-08  nbox= 20  T=  300.00K
     iter. #   554  RMS(g-h-1)= 7.415E-08  nbox= 20  T=  300.00K
     iter. #   555  RMS(g-h-1)= 7.374E-08  nbox= 20  T=  300.00K
     iter. #   556  RMS(g-h-1)= 7.348E-08  nbox= 20  T=  300.00K
     iter. #   557  RMS(g-h-1)= 7.289E-08  nbox= 20  T=  300.00K
     iter. #   558  RMS(g-h-1)= 7.274E-08  nbox= 20  T=  300.00K
     iter. #   559  RMS(g-h-1)= 7.252E-08  nbox= 20  T=  300.00K
     iter. #   560  RMS(g-h-1)= 7.230E-08  nbox= 20  T=  300.00K
     iter. #   561  RMS(g-h-1)= 7.208E-08  nbox= 20  T=  300.00K
     iter. #   562  RMS(g-h-1)= 7.195E-08  nbox= 20  T=  300.00K
     iter. #   563  RMS(g-h-1)= 7.132E-08  nbox= 20  T=  300.00K
     iter. #   564  RMS(g-h-1)= 7.109E-08  nbox= 20  T=  300.00K
     iter. #   565  RMS(g-h-1)= 7.072E-08  nbox= 20  T=  300.00K
     iter. #   566  RMS(g-h-1)= 7.046E-08  nbox= 20  T=  300.00K
     iter. #   567  RMS(g-h-1)= 6.982E-08  nbox= 20  T=  300.00K
     iter. #   568  RMS(g-h-1)= 6.951E-08  nbox= 20  T=  300.00K
     iter. #   569  RMS(g-h-1)= 6.849E-08  nbox= 20  T=  300.00K
     iter. #   570  RMS(g-h-1)= 6.833E-08  nbox= 20  T=  300.00K
     iter. #   571  RMS(g-h-1)= 6.698E-08  nbox= 20  T=  300.00K
     iter. #   572  RMS(g-h-1)= 6.670E-08  nbox= 20  T=  300.00K
     iter. #   573  RMS(g-h-1)= 6.612E-08  nbox= 20  T=  300.00K
     iter. #   574  RMS(g-h-1)= 6.590E-08  nbox= 20  T=  300.00K
     iter. #   575  RMS(g-h-1)= 6.516E-08  nbox= 20  T=  300.00K
     iter. #   576  RMS(g-h-1)= 6.501E-08  nbox= 20  T=  300.00K
     iter. #   577  RMS(g-h-1)= 6.491E-08  nbox= 20  T=  300.00K
     iter. #   578  RMS(g-h-1)= 6.432E-08  nbox= 20  T=  300.00K
     iter. #   579  RMS(g-h-1)= 6.415E-08  nbox= 20  T=  300.00K
     iter. #   580  RMS(g-h-1)= 6.361E-08  nbox= 20  T=  300.00K
     iter. #   581  RMS(g-h-1)= 6.351E-08  nbox= 20  T=  300.00K
     iter. #   582  RMS(g-h-1)= 6.334E-08  nbox= 20  T=  300.00K
     iter. #   583  RMS(g-h-1)= 6.321E-08  nbox= 20  T=  300.00K
     iter. #   584  RMS(g-h-1)= 6.309E-08  nbox= 20  T=  300.00K
     iter. #   585  RMS(g-h-1)= 6.292E-08  nbox= 20  T=  300.00K
     iter. #   586  RMS(g-h-1)= 6.281E-08  nbox= 20  T=  300.00K
     iter. #   587  RMS(g-h-1)= 6.215E-08  nbox= 20  T=  300.00K
     iter. #   588  RMS(g-h-1)= 6.204E-08  nbox= 20  T=  300.00K
     iter. #   589  RMS(g-h-1)= 6.182E-08  nbox= 20  T=  300.00K
     iter. #   590  RMS(g-h-1)= 6.147E-08  nbox= 20  T=  300.00K
     iter. #   591  RMS(g-h-1)= 6.059E-08  nbox= 20  T=  300.00K
     iter. #   592  RMS(g-h-1)= 6.027E-08  nbox= 20  T=  300.00K
     iter. #   593  RMS(g-h-1)= 6.010E-08  nbox= 20  T=  300.00K
     iter. #   594  RMS(g-h-1)= 5.962E-08  nbox= 20  T=  300.00K
     iter. #   595  RMS(g-h-1)= 5.917E-08  nbox= 20  T=  300.00K
     iter. #   596  RMS(g-h-1)= 5.907E-08  nbox= 20  T=  300.00K
     iter. #   597  RMS(g-h-1)= 5.900E-08  nbox= 20  T=  300.00K
     iter. #   598  RMS(g-h-1)= 5.864E-08  nbox= 20  T=  300.00K
     iter. #   599  RMS(g-h-1)= 5.859E-08  nbox= 20  T=  300.00K
     iter. #   600  RMS(g-h-1)= 5.834E-08  nbox= 20  T=  300.00K
     iter. #   601  RMS(g-h-1)= 5.824E-08  nbox= 20  T=  300.00K
     iter. #   602  RMS(g-h-1)= 5.796E-08  nbox= 20  T=  300.00K
     iter. #   603  RMS(g-h-1)= 5.785E-08  nbox= 20  T=  300.00K
     iter. #   604  RMS(g-h-1)= 5.778E-08  nbox= 20  T=  300.00K
     iter. #   605  RMS(g-h-1)= 5.749E-08  nbox= 20  T=  300.00K
     iter. #   606  RMS(g-h-1)= 5.743E-08  nbox= 20  T=  300.00K
     iter. #   607  RMS(g-h-1)= 5.730E-08  nbox= 20  T=  300.00K
     iter. #   608  RMS(g-h-1)= 5.725E-08  nbox= 20  T=  300.00K
     iter. #   609  RMS(g-h-1)= 5.711E-08  nbox= 20  T=  300.00K
     iter. #   610  RMS(g-h-1)= 5.703E-08  nbox= 20  T=  300.00K
     iter. #   611  RMS(g-h-1)= 5.697E-08  nbox= 20  T=  300.00K
     iter. #   612  RMS(g-h-1)= 5.629E-08  nbox= 20  T=  300.00K
     iter. #   613  RMS(g-h-1)= 5.623E-08  nbox= 20  T=  300.00K
     iter. #   614  RMS(g-h-1)= 5.582E-08  nbox= 20  T=  300.00K
     iter. #   615  RMS(g-h-1)= 5.564E-08  nbox= 20  T=  300.00K
     iter. #   616  RMS(g-h-1)= 5.552E-08  nbox= 20  T=  300.00K
     iter. #   617  RMS(g-h-1)= 5.500E-08  nbox= 20  T=  300.00K
     iter. #   618  RMS(g-h-1)= 5.490E-08  nbox= 20  T=  300.00K
     iter. #   619  RMS(g-h-1)= 5.480E-08  nbox= 20  T=  300.00K
     iter. #   620  RMS(g-h-1)= 5.468E-08  nbox= 20  T=  300.00K
     iter. #   621  RMS(g-h-1)= 5.405E-08  nbox= 20  T=  300.00K
     iter. #   622  RMS(g-h-1)= 5.390E-08  nbox= 20  T=  300.00K
     iter. #   623  RMS(g-h-1)= 5.349E-08  nbox= 20  T=  300.00K
     iter. #   624  RMS(g-h-1)= 5.318E-08  nbox= 20  T=  300.00K
     iter. #   625  RMS(g-h-1)= 5.274E-08  nbox= 20  T=  300.00K
     iter. #   626  RMS(g-h-1)= 5.260E-08  nbox= 20  T=  300.00K
     iter. #   627  RMS(g-h-1)= 5.231E-08  nbox= 20  T=  300.00K
     iter. #   628  RMS(g-h-1)= 5.225E-08  nbox= 20  T=  300.00K
     iter. #   629  RMS(g-h-1)= 5.169E-08  nbox= 20  T=  300.00K
     iter. #   630  RMS(g-h-1)= 5.164E-08  nbox= 20  T=  300.00K
     iter. #   631  RMS(g-h-1)= 5.144E-08  nbox= 20  T=  300.00K
     iter. #   632  RMS(g-h-1)= 5.140E-08  nbox= 20  T=  300.00K
     iter. #   633  RMS(g-h-1)= 5.122E-08  nbox= 20  T=  300.00K
     iter. #   634  RMS(g-h-1)= 5.118E-08  nbox= 20  T=  300.00K
     iter. #   635  RMS(g-h-1)= 5.111E-08  nbox= 20  T=  300.00K
     iter. #   636  RMS(g-h-1)= 5.109E-08  nbox= 20  T=  300.00K
     iter. #   637  RMS(g-h-1)= 5.097E-08  nbox= 20  T=  300.00K
     iter. #   638  RMS(g-h-1)= 5.093E-08  nbox= 20  T=  300.00K
     iter. #   639  RMS(g-h-1)= 5.089E-08  nbox= 20  T=  300.00K
     iter. #   640  RMS(g-h-1)= 5.068E-08  nbox= 20  T=  300.00K
     iter. #   641  RMS(g-h-1)= 5.065E-08  nbox= 20  T=  300.00K
     iter. #   642  RMS(g-h-1)= 5.055E-08  nbox= 20  T=  300.00K
     iter. #   643  RMS(g-h-1)= 5.038E-08  nbox= 20  T=  300.00K
     iter. #   644  RMS(g-h-1)= 5.037E-08  nbox= 20  T=  300.00K
     iter. #   645  RMS(g-h-1)= 5.024E-08  nbox= 20  T=  300.00K
     iter. #   646  RMS(g-h-1)= 5.015E-08  nbox= 20  T=  300.00K
     iter. #   647  RMS(g-h-1)= 5.005E-08  nbox= 20  T=  300.00K
     iter. #   648  RMS(g-h-1)= 4.963E-08  nbox= 20  T=  300.00K
     iter. #   649  RMS(g-h-1)= 4.954E-08  nbox= 20  T=  300.00K
     iter. #   650  RMS(g-h-1)= 4.885E-08  nbox= 20  T=  300.00K
     iter. #   651  RMS(g-h-1)= 4.872E-08  nbox= 20  T=  300.00K
     iter. #   652  RMS(g-h-1)= 4.857E-08  nbox= 20  T=  300.00K
     iter. #   653  RMS(g-h-1)= 4.843E-08  nbox= 20  T=  300.00K
     iter. #   654  RMS(g-h-1)= 4.832E-08  nbox= 20  T=  300.00K
     iter. #   655  RMS(g-h-1)= 4.828E-08  nbox= 20  T=  300.00K
     iter. #   656  RMS(g-h-1)= 4.777E-08  nbox= 20  T=  300.00K
     iter. #   657  RMS(g-h-1)= 4.771E-08  nbox= 20  T=  300.00K
     iter. #   658  RMS(g-h-1)= 4.731E-08  nbox= 20  T=  300.00K
     iter. #   659  RMS(g-h-1)= 4.710E-08  nbox= 20  T=  300.00K
     iter. #   660  RMS(g-h-1)= 4.700E-08  nbox= 20  T=  300.00K
     iter. #   661  RMS(g-h-1)= 4.659E-08  nbox= 20  T=  300.00K
     iter. #   662  RMS(g-h-1)= 4.655E-08  nbox= 20  T=  300.00K
     iter. #   663  RMS(g-h-1)= 4.624E-08  nbox= 20  T=  300.00K
     iter. #   664  RMS(g-h-1)= 4.616E-08  nbox= 20  T=  300.00K
     iter. #   665  RMS(g-h-1)= 4.605E-08  nbox= 20  T=  300.00K
     iter. #   666  RMS(g-h-1)= 4.598E-08  nbox= 20  T=  300.00K
     iter. #   667  RMS(g-h-1)= 4.589E-08  nbox= 20  T=  300.00K
     iter. #   668  RMS(g-h-1)= 4.572E-08  nbox= 20  T=  300.00K
     iter. #   669  RMS(g-h-1)= 4.563E-08  nbox= 20  T=  300.00K
     iter. #   670  RMS(g-h-1)= 4.533E-08  nbox= 20  T=  300.00K
     iter. #   671  RMS(g-h-1)= 4.507E-08  nbox= 20  T=  300.00K
     iter. #   672  RMS(g-h-1)= 4.501E-08  nbox= 20  T=  300.00K
     iter. #   673  RMS(g-h-1)= 4.476E-08  nbox= 20  T=  300.00K
     iter. #   674  RMS(g-h-1)= 4.465E-08  nbox= 20  T=  300.00K
     iter. #   675  RMS(g-h-1)= 4.461E-08  nbox= 20  T=  300.00K
     iter. #   676  RMS(g-h-1)= 4.450E-08  nbox= 20  T=  300.00K
     iter. #   677  RMS(g-h-1)= 4.447E-08  nbox= 20  T=  300.00K
     iter. #   678  RMS(g-h-1)= 4.437E-08  nbox= 20  T=  300.00K
     iter. #   679  RMS(g-h-1)= 4.436E-08  nbox= 20  T=  300.00K
     iter. #   680  RMS(g-h-1)= 4.432E-08  nbox= 20  T=  300.00K
     iter. #   681  RMS(g-h-1)= 4.429E-08  nbox= 20  T=  300.00K
     iter. #   682  RMS(g-h-1)= 4.427E-08  nbox= 20  T=  300.00K
     iter. #   683  RMS(g-h-1)= 4.414E-08  nbox= 20  T=  300.00K
     iter. #   684  RMS(g-h-1)= 4.399E-08  nbox= 20  T=  300.00K
     iter. #   685  RMS(g-h-1)= 4.393E-08  nbox= 20  T=  300.00K
     iter. #   686  RMS(g-h-1)= 4.368E-08  nbox= 20  T=  300.00K
     iter. #   687  RMS(g-h-1)= 4.360E-08  nbox= 20  T=  300.00K
     iter. #   688  RMS(g-h-1)= 4.356E-08  nbox= 20  T=  300.00K
     iter. #   689  RMS(g-h-1)= 4.323E-08  nbox= 20  T=  300.00K
     iter. #   690  RMS(g-h-1)= 4.318E-08  nbox= 20  T=  300.00K
     iter. #   691  RMS(g-h-1)= 4.309E-08  nbox= 20  T=  300.00K
     iter. #   692  RMS(g-h-1)= 4.294E-08  nbox= 20  T=  300.00K
     iter. #   693  RMS(g-h-1)= 4.290E-08  nbox= 20  T=  300.00K
     iter. #   694  RMS(g-h-1)= 4.279E-08  nbox= 20  T=  300.00K
     iter. #   695  RMS(g-h-1)= 4.274E-08  nbox= 20  T=  300.00K
     iter. #   696  RMS(g-h-1)= 4.272E-08  nbox= 20  T=  300.00K
     iter. #   697  RMS(g-h-1)= 4.266E-08  nbox= 20  T=  300.00K
     iter. #   698  RMS(g-h-1)= 4.255E-08  nbox= 20  T=  300.00K
     iter. #   699  RMS(g-h-1)= 4.252E-08  nbox= 20  T=  300.00K
     iter. #   700  RMS(g-h-1)= 4.247E-08  nbox= 20  T=  300.00K
     iter. #   701  RMS(g-h-1)= 4.226E-08  nbox= 20  T=  300.00K
     iter. #   702  RMS(g-h-1)= 4.220E-08  nbox= 20  T=  300.00K
     iter. #   703  RMS(g-h-1)= 4.205E-08  nbox= 20  T=  300.00K
     iter. #   704  RMS(g-h-1)= 4.199E-08  nbox= 20  T=  300.00K
     iter. #   705  RMS(g-h-1)= 4.180E-08  nbox= 20  T=  300.00K
     iter. #   706  RMS(g-h-1)= 4.171E-08  nbox= 20  T=  300.00K
     iter. #   707  RMS(g-h-1)= 4.161E-08  nbox= 20  T=  300.00K
     iter. #   708  RMS(g-h-1)= 4.154E-08  nbox= 20  T=  300.00K
     iter. #   709  RMS(g-h-1)= 4.133E-08  nbox= 20  T=  300.00K
     iter. #   710  RMS(g-h-1)= 4.131E-08  nbox= 20  T=  300.00K
     iter. #   711  RMS(g-h-1)= 4.126E-08  nbox= 20  T=  300.00K
     iter. #   712  RMS(g-h-1)= 4.092E-08  nbox= 20  T=  300.00K
     iter. #   713  RMS(g-h-1)= 4.089E-08  nbox= 20  T=  300.00K
     iter. #   714  RMS(g-h-1)= 4.082E-08  nbox= 20  T=  300.00K
     iter. #   715  RMS(g-h-1)= 4.079E-08  nbox= 20  T=  300.00K
     iter. #   716  RMS(g-h-1)= 4.076E-08  nbox= 20  T=  300.00K
     iter. #   717  RMS(g-h-1)= 4.059E-08  nbox= 20  T=  300.00K
     iter. #   718  RMS(g-h-1)= 4.055E-08  nbox= 20  T=  300.00K
     iter. #   719  RMS(g-h-1)= 4.023E-08  nbox= 20  T=  300.00K
     iter. #   720  RMS(g-h-1)= 4.015E-08  nbox= 20  T=  300.00K
     iter. #   721  RMS(g-h-1)= 3.928E-08  nbox= 20  T=  300.00K
     iter. #   722  RMS(g-h-1)= 3.898E-08  nbox= 20  T=  300.00K
     iter. #   723  RMS(g-h-1)= 3.889E-08  nbox= 20  T=  300.00K
     iter. #   724  RMS(g-h-1)= 3.856E-08  nbox= 20  T=  300.00K
     iter. #   725  RMS(g-h-1)= 3.837E-08  nbox= 20  T=  300.00K
     iter. #   726  RMS(g-h-1)= 3.829E-08  nbox= 20  T=  300.00K
     iter. #   727  RMS(g-h-1)= 3.811E-08  nbox= 20  T=  300.00K
     iter. #   728  RMS(g-h-1)= 3.785E-08  nbox= 20  T=  300.00K
     iter. #   729  RMS(g-h-1)= 3.774E-08  nbox= 20  T=  300.00K
     iter. #   730  RMS(g-h-1)= 3.750E-08  nbox= 20  T=  300.00K
     iter. #   731  RMS(g-h-1)= 3.704E-08  nbox= 20  T=  300.00K
     iter. #   732  RMS(g-h-1)= 3.696E-08  nbox= 20  T=  300.00K
     iter. #   733  RMS(g-h-1)= 3.689E-08  nbox= 20  T=  300.00K
     iter. #   734  RMS(g-h-1)= 3.660E-08  nbox= 20  T=  300.00K
     iter. #   735  RMS(g-h-1)= 3.653E-08  nbox= 20  T=  300.00K
     iter. #   736  RMS(g-h-1)= 3.649E-08  nbox= 20  T=  300.00K
     iter. #   737  RMS(g-h-1)= 3.645E-08  nbox= 20  T=  300.00K
     iter. #   738  RMS(g-h-1)= 3.631E-08  nbox= 20  T=  300.00K
     iter. #   739  RMS(g-h-1)= 3.629E-08  nbox= 20  T=  300.00K
     iter. #   740  RMS(g-h-1)= 3.606E-08  nbox= 20  T=  300.00K
     iter. #   741  RMS(g-h-1)= 3.595E-08  nbox= 20  T=  300.00K
     iter. #   742  RMS(g-h-1)= 3.589E-08  nbox= 20  T=  300.00K
     iter. #   743  RMS(g-h-1)= 3.582E-08  nbox= 20  T=  300.00K
     iter. #   744  RMS(g-h-1)= 3.574E-08  nbox= 20  T=  300.00K
     iter. #   745  RMS(g-h-1)= 3.570E-08  nbox= 20  T=  300.00K
     iter. #   746  RMS(g-h-1)= 3.565E-08  nbox= 20  T=  300.00K
     iter. #   747  RMS(g-h-1)= 3.560E-08  nbox= 20  T=  300.00K
     iter. #   748  RMS(g-h-1)= 3.556E-08  nbox= 20  T=  300.00K
     iter. #   749  RMS(g-h-1)= 3.551E-08  nbox= 20  T=  300.00K
     iter. #   750  RMS(g-h-1)= 3.531E-08  nbox= 20  T=  300.00K
     iter. #   751  RMS(g-h-1)= 3.524E-08  nbox= 20  T=  300.00K
     iter. #   752  RMS(g-h-1)= 3.517E-08  nbox= 20  T=  300.00K
     iter. #   753  RMS(g-h-1)= 3.491E-08  nbox= 20  T=  300.00K
     iter. #   754  RMS(g-h-1)= 3.481E-08  nbox= 20  T=  300.00K
     iter. #   755  RMS(g-h-1)= 3.478E-08  nbox= 20  T=  300.00K
     iter. #   756  RMS(g-h-1)= 3.471E-08  nbox= 20  T=  300.00K
     iter. #   757  RMS(g-h-1)= 3.467E-08  nbox= 20  T=  300.00K
     iter. #   758  RMS(g-h-1)= 3.464E-08  nbox= 20  T=  300.00K
     iter. #   759  RMS(g-h-1)= 3.453E-08  nbox= 20  T=  300.00K
     iter. #   760  RMS(g-h-1)= 3.450E-08  nbox= 20  T=  300.00K
     iter. #   761  RMS(g-h-1)= 3.445E-08  nbox= 20  T=  300.00K
     iter. #   762  RMS(g-h-1)= 3.432E-08  nbox= 20  T=  300.00K
     iter. #   763  RMS(g-h-1)= 3.430E-08  nbox= 20  T=  300.00K
     iter. #   764  RMS(g-h-1)= 3.424E-08  nbox= 20  T=  300.00K
     iter. #   765  RMS(g-h-1)= 3.419E-08  nbox= 20  T=  300.00K
     iter. #   766  RMS(g-h-1)= 3.414E-08  nbox= 20  T=  300.00K
     iter. #   767  RMS(g-h-1)= 3.412E-08  nbox= 20  T=  300.00K
     iter. #   768  RMS(g-h-1)= 3.402E-08  nbox= 20  T=  300.00K
     iter. #   769  RMS(g-h-1)= 3.401E-08  nbox= 20  T=  300.00K
     iter. #   770  RMS(g-h-1)= 3.398E-08  nbox= 20  T=  300.00K
     iter. #   771  RMS(g-h-1)= 3.395E-08  nbox= 20  T=  300.00K
     iter. #   772  RMS(g-h-1)= 3.394E-08  nbox= 20  T=  300.00K
     iter. #   773  RMS(g-h-1)= 3.383E-08  nbox= 20  T=  300.00K
     iter. #   774  RMS(g-h-1)= 3.381E-08  nbox= 20  T=  300.00K
     iter. #   775  RMS(g-h-1)= 3.365E-08  nbox= 20  T=  300.00K
     iter. #   776  RMS(g-h-1)= 3.351E-08  nbox= 20  T=  300.00K
     iter. #   777  RMS(g-h-1)= 3.348E-08  nbox= 20  T=  300.00K
     iter. #   778  RMS(g-h-1)= 3.338E-08  nbox= 20  T=  300.00K
     iter. #   779  RMS(g-h-1)= 3.337E-08  nbox= 20  T=  300.00K
     iter. #   780  RMS(g-h-1)= 3.327E-08  nbox= 20  T=  300.00K
     iter. #   781  RMS(g-h-1)= 3.325E-08  nbox= 20  T=  300.00K
     iter. #   782  RMS(g-h-1)= 3.312E-08  nbox= 20  T=  300.00K
     iter. #   783  RMS(g-h-1)= 3.310E-08  nbox= 20  T=  300.00K
     iter. #   784  RMS(g-h-1)= 3.308E-08  nbox= 20  T=  300.00K
     iter. #   785  RMS(g-h-1)= 3.307E-08  nbox= 20  T=  300.00K
     iter. #   786  RMS(g-h-1)= 3.296E-08  nbox= 20  T=  300.00K
     iter. #   787  RMS(g-h-1)= 3.292E-08  nbox= 20  T=  300.00K
     iter. #   788  RMS(g-h-1)= 3.284E-08  nbox= 20  T=  300.00K
     iter. #   789  RMS(g-h-1)= 3.281E-08  nbox= 20  T=  300.00K
     iter. #   790  RMS(g-h-1)= 3.266E-08  nbox= 20  T=  300.00K
     iter. #   791  RMS(g-h-1)= 3.260E-08  nbox= 20  T=  300.00K
     iter. #   792  RMS(g-h-1)= 3.257E-08  nbox= 20  T=  300.00K
     iter. #   793  RMS(g-h-1)= 3.248E-08  nbox= 20  T=  300.00K
     iter. #   794  RMS(g-h-1)= 3.242E-08  nbox= 20  T=  300.00K
     iter. #   795  RMS(g-h-1)= 3.237E-08  nbox= 20  T=  300.00K
     iter. #   796  RMS(g-h-1)= 3.235E-08  nbox= 20  T=  300.00K
     iter. #   797  RMS(g-h-1)= 3.224E-08  nbox= 20  T=  300.00K
     iter. #   798  RMS(g-h-1)= 3.210E-08  nbox= 20  T=  300.00K
     iter. #   799  RMS(g-h-1)= 3.205E-08  nbox= 20  T=  300.00K
     iter. #   800  RMS(g-h-1)= 3.201E-08  nbox= 20  T=  300.00K
     iter. #   801  RMS(g-h-1)= 3.189E-08  nbox= 20  T=  300.00K
     iter. #   802  RMS(g-h-1)= 3.186E-08  nbox= 20  T=  300.00K
     iter. #   803  RMS(g-h-1)= 3.183E-08  nbox= 20  T=  300.00K
     iter. #   804  RMS(g-h-1)= 3.178E-08  nbox= 20  T=  300.00K
     iter. #   805  RMS(g-h-1)= 3.174E-08  nbox= 20  T=  300.00K
     iter. #   806  RMS(g-h-1)= 3.164E-08  nbox= 20  T=  300.00K
     iter. #   807  RMS(g-h-1)= 3.163E-08  nbox= 20  T=  300.00K
     iter. #   808  RMS(g-h-1)= 3.151E-08  nbox= 20  T=  300.00K
     iter. #   809  RMS(g-h-1)= 3.144E-08  nbox= 20  T=  300.00K
     iter. #   810  RMS(g-h-1)= 3.142E-08  nbox= 20  T=  300.00K
     iter. #   811  RMS(g-h-1)= 3.135E-08  nbox= 20  T=  300.00K
     iter. #   812  RMS(g-h-1)= 3.133E-08  nbox= 20  T=  300.00K
     iter. #   813  RMS(g-h-1)= 3.131E-08  nbox= 20  T=  300.00K
     iter. #   814  RMS(g-h-1)= 3.129E-08  nbox= 20  T=  300.00K
     iter. #   815  RMS(g-h-1)= 3.128E-08  nbox= 20  T=  300.00K
     iter. #   816  RMS(g-h-1)= 3.125E-08  nbox= 20  T=  300.00K
     iter. #   817  RMS(g-h-1)= 3.121E-08  nbox= 20  T=  300.00K
     iter. #   818  RMS(g-h-1)= 3.116E-08  nbox= 20  T=  300.00K
     iter. #   819  RMS(g-h-1)= 3.105E-08  nbox= 20  T=  300.00K
     iter. #   820  RMS(g-h-1)= 3.103E-08  nbox= 20  T=  300.00K
     iter. #   821  RMS(g-h-1)= 3.097E-08  nbox= 20  T=  300.00K
     iter. #   822  RMS(g-h-1)= 3.094E-08  nbox= 20  T=  300.00K
     iter. #   823  RMS(g-h-1)= 3.091E-08  nbox= 20  T=  300.00K
     iter. #   824  RMS(g-h-1)= 3.090E-08  nbox= 20  T=  300.00K
     iter. #   825  RMS(g-h-1)= 3.085E-08  nbox= 20  T=  300.00K
     iter. #   826  RMS(g-h-1)= 3.084E-08  nbox= 20  T=  300.00K
     iter. #   827  RMS(g-h-1)= 3.076E-08  nbox= 20  T=  300.00K
     iter. #   828  RMS(g-h-1)= 3.072E-08  nbox= 20  T=  300.00K
     iter. #   829  RMS(g-h-1)= 3.071E-08  nbox= 20  T=  300.00K
     iter. #   830  RMS(g-h-1)= 3.054E-08  nbox= 20  T=  300.00K
     iter. #   831  RMS(g-h-1)= 3.042E-08  nbox= 20  T=  300.00K
     iter. #   832  RMS(g-h-1)= 3.039E-08  nbox= 20  T=  300.00K
     iter. #   833  RMS(g-h-1)= 3.037E-08  nbox= 20  T=  300.00K
     iter. #   834  RMS(g-h-1)= 3.031E-08  nbox= 20  T=  300.00K
     iter. #   835  RMS(g-h-1)= 3.029E-08  nbox= 20  T=  300.00K
     iter. #   836  RMS(g-h-1)= 3.018E-08  nbox= 20  T=  300.00K
     iter. #   837  RMS(g-h-1)= 3.017E-08  nbox= 20  T=  300.00K
     iter. #   838  RMS(g-h-1)= 3.014E-08  nbox= 20  T=  300.00K
     iter. #   839  RMS(g-h-1)= 3.013E-08  nbox= 20  T=  300.00K
     iter. #   840  RMS(g-h-1)= 3.007E-08  nbox= 20  T=  300.00K
     iter. #   841  RMS(g-h-1)= 3.002E-08  nbox= 20  T=  300.00K
     iter. #   842  RMS(g-h-1)= 2.999E-08  nbox= 20  T=  300.00K
     iter. #   843  RMS(g-h-1)= 2.995E-08  nbox= 20  T=  300.00K
     iter. #   844  RMS(g-h-1)= 2.994E-08  nbox= 20  T=  300.00K
     iter. #   845  RMS(g-h-1)= 2.987E-08  nbox= 20  T=  300.00K
     iter. #   846  RMS(g-h-1)= 2.983E-08  nbox= 20  T=  300.00K
     iter. #   847  RMS(g-h-1)= 2.981E-08  nbox= 20  T=  300.00K
     iter. #   848  RMS(g-h-1)= 2.980E-08  nbox= 20  T=  300.00K
     iter. #   849  RMS(g-h-1)= 2.969E-08  nbox= 20  T=  300.00K
     iter. #   850  RMS(g-h-1)= 2.962E-08  nbox= 20  T=  300.00K
     iter. #   851  RMS(g-h-1)= 2.959E-08  nbox= 20  T=  300.00K
     iter. #   852  RMS(g-h-1)= 2.955E-08  nbox= 20  T=  300.00K
     iter. #   853  RMS(g-h-1)= 2.954E-08  nbox= 20  T=  300.00K
     iter. #   854  RMS(g-h-1)= 2.951E-08  nbox= 20  T=  300.00K
     iter. #   855  RMS(g-h-1)= 2.949E-08  nbox= 20  T=  300.00K
     iter. #   856  RMS(g-h-1)= 2.945E-08  nbox= 20  T=  300.00K
     iter. #   857  RMS(g-h-1)= 2.943E-08  nbox= 20  T=  300.00K
     iter. #   858  RMS(g-h-1)= 2.929E-08  nbox= 20  T=  300.00K
     iter. #   859  RMS(g-h-1)= 2.914E-08  nbox= 20  T=  300.00K
     iter. #   860  RMS(g-h-1)= 2.910E-08  nbox= 20  T=  300.00K
     iter. #   861  RMS(g-h-1)= 2.905E-08  nbox= 20  T=  300.00K
     iter. #   862  RMS(g-h-1)= 2.895E-08  nbox= 20  T=  300.00K
     iter. #   863  RMS(g-h-1)= 2.892E-08  nbox= 20  T=  300.00K
     iter. #   864  RMS(g-h-1)= 2.878E-08  nbox= 20  T=  300.00K
     iter. #   865  RMS(g-h-1)= 2.875E-08  nbox= 20  T=  300.00K
     iter. #   866  RMS(g-h-1)= 2.867E-08  nbox= 20  T=  300.00K
     iter. #   867  RMS(g-h-1)= 2.866E-08  nbox= 20  T=  300.00K
     iter. #   868  RMS(g-h-1)= 2.854E-08  nbox= 20  T=  300.00K
     iter. #   869  RMS(g-h-1)= 2.851E-08  nbox= 20  T=  300.00K
     iter. #   870  RMS(g-h-1)= 2.840E-08  nbox= 20  T=  300.00K
     iter. #   871  RMS(g-h-1)= 2.839E-08  nbox= 20  T=  300.00K
     iter. #   872  RMS(g-h-1)= 2.833E-08  nbox= 20  T=  300.00K
     iter. #   873  RMS(g-h-1)= 2.830E-08  nbox= 20  T=  300.00K
     iter. #   874  RMS(g-h-1)= 2.825E-08  nbox= 20  T=  300.00K
     iter. #   875  RMS(g-h-1)= 2.823E-08  nbox= 20  T=  300.00K
     iter. #   876  RMS(g-h-1)= 2.812E-08  nbox= 20  T=  300.00K
     iter. #   877  RMS(g-h-1)= 2.809E-08  nbox= 20  T=  300.00K
     iter. #   878  RMS(g-h-1)= 2.802E-08  nbox= 20  T=  300.00K
     iter. #   879  RMS(g-h-1)= 2.795E-08  nbox= 20  T=  300.00K
     iter. #   880  RMS(g-h-1)= 2.790E-08  nbox= 20  T=  300.00K
     iter. #   881  RMS(g-h-1)= 2.789E-08  nbox= 20  T=  300.00K
     iter. #   882  RMS(g-h-1)= 2.789E-08  nbox= 20  T=  300.00K
     iter. #   883  RMS(g-h-1)= 2.787E-08  nbox= 20  T=  300.00K
     iter. #   884  RMS(g-h-1)= 2.784E-08  nbox= 20  T=  300.00K
     iter. #   885  RMS(g-h-1)= 2.777E-08  nbox= 20  T=  300.00K
     iter. #   886  RMS(g-h-1)= 2.776E-08  nbox= 20  T=  300.00K
     iter. #   887  RMS(g-h-1)= 2.774E-08  nbox= 20  T=  300.00K
     iter. #   888  RMS(g-h-1)= 2.761E-08  nbox= 20  T=  300.00K
     iter. #   889  RMS(g-h-1)= 2.757E-08  nbox= 20  T=  300.00K
     iter. #   890  RMS(g-h-1)= 2.754E-08  nbox= 20  T=  300.00K
     iter. #   891  RMS(g-h-1)= 2.747E-08  nbox= 20  T=  300.00K
     iter. #   892  RMS(g-h-1)= 2.742E-08  nbox= 20  T=  300.00K
     iter. #   893  RMS(g-h-1)= 2.733E-08  nbox= 20  T=  300.00K
     iter. #   894  RMS(g-h-1)= 2.727E-08  nbox= 20  T=  300.00K
     iter. #   895  RMS(g-h-1)= 2.717E-08  nbox= 20  T=  300.00K
     iter. #   896  RMS(g-h-1)= 2.713E-08  nbox= 20  T=  300.00K
     iter. #   897  RMS(g-h-1)= 2.705E-08  nbox= 20  T=  300.00K
     iter. #   898  RMS(g-h-1)= 2.702E-08  nbox= 20  T=  300.00K
     iter. #   899  RMS(g-h-1)= 2.698E-08  nbox= 20  T=  300.00K
     iter. #   900  RMS(g-h-1)= 2.694E-08  nbox= 20  T=  300.00K
     iter. #   901  RMS(g-h-1)= 2.685E-08  nbox= 20  T=  300.00K
     iter. #   902  RMS(g-h-1)= 2.670E-08  nbox= 20  T=  300.00K
     iter. #   903  RMS(g-h-1)= 2.659E-08  nbox= 20  T=  300.00K
     iter. #   904  RMS(g-h-1)= 2.653E-08  nbox= 20  T=  300.00K
     iter. #   905  RMS(g-h-1)= 2.641E-08  nbox= 20  T=  300.00K
     iter. #   906  RMS(g-h-1)= 2.635E-08  nbox= 20  T=  300.00K
     iter. #   907  RMS(g-h-1)= 2.629E-08  nbox= 20  T=  300.00K
     iter. #   908  RMS(g-h-1)= 2.626E-08  nbox= 20  T=  300.00K
     iter. #   909  RMS(g-h-1)= 2.621E-08  nbox= 20  T=  300.00K
     iter. #   910  RMS(g-h-1)= 2.612E-08  nbox= 20  T=  300.00K
     iter. #   911  RMS(g-h-1)= 2.608E-08  nbox= 20  T=  300.00K
     iter. #   912  RMS(g-h-1)= 2.595E-08  nbox= 20  T=  300.00K
     iter. #   913  RMS(g-h-1)= 2.592E-08  nbox= 20  T=  300.00K
     iter. #   914  RMS(g-h-1)= 2.585E-08  nbox= 20  T=  300.00K
     iter. #   915  RMS(g-h-1)= 2.570E-08  nbox= 20  T=  300.00K
     iter. #   916  RMS(g-h-1)= 2.556E-08  nbox= 20  T=  300.00K
     iter. #   917  RMS(g-h-1)= 2.553E-08  nbox= 20  T=  300.00K
     iter. #   918  RMS(g-h-1)= 2.540E-08  nbox= 20  T=  300.00K
     iter. #   919  RMS(g-h-1)= 2.534E-08  nbox= 20  T=  300.00K
     iter. #   920  RMS(g-h-1)= 2.526E-08  nbox= 20  T=  300.00K
     iter. #   921  RMS(g-h-1)= 2.514E-08  nbox= 20  T=  300.00K
     iter. #   922  RMS(g-h-1)= 2.505E-08  nbox= 20  T=  300.00K
     iter. #   923  RMS(g-h-1)= 2.501E-08  nbox= 20  T=  300.00K
     iter. #   924  RMS(g-h-1)= 2.490E-08  nbox= 20  T=  300.00K
     iter. #   925  RMS(g-h-1)= 2.485E-08  nbox= 20  T=  300.00K
     iter. #   926  RMS(g-h-1)= 2.481E-08  nbox= 20  T=  300.00K
     iter. #   927  RMS(g-h-1)= 2.478E-08  nbox= 20  T=  300.00K
     iter. #   928  RMS(g-h-1)= 2.465E-08  nbox= 20  T=  300.00K
     iter. #   929  RMS(g-h-1)= 2.450E-08  nbox= 20  T=  300.00K
     iter. #   930  RMS(g-h-1)= 2.446E-08  nbox= 20  T=  300.00K
     iter. #   931  RMS(g-h-1)= 2.439E-08  nbox= 20  T=  300.00K
     iter. #   932  RMS(g-h-1)= 2.438E-08  nbox= 20  T=  300.00K
     iter. #   933  RMS(g-h-1)= 2.435E-08  nbox= 20  T=  300.00K
     iter. #   934  RMS(g-h-1)= 2.429E-08  nbox= 20  T=  300.00K
     iter. #   935  RMS(g-h-1)= 2.429E-08  nbox= 20  T=  300.00K
     iter. #   936  RMS(g-h-1)= 2.422E-08  nbox= 20  T=  300.00K
     iter. #   937  RMS(g-h-1)= 2.414E-08  nbox= 20  T=  300.00K
     iter. #   938  RMS(g-h-1)= 2.413E-08  nbox= 20  T=  300.00K
     iter. #   939  RMS(g-h-1)= 2.409E-08  nbox= 20  T=  300.00K
     iter. #   940  RMS(g-h-1)= 2.410E-08  nbox= 20  T=  300.00K
     iter. #   941  RMS(g-h-1)= 2.401E-08  nbox= 20  T=  300.00K
     iter. #   942  RMS(g-h-1)= 2.408E-08  nbox= 20  T=  300.00K
     iter. #   943  RMS(g-h-1)= 2.378E-08  nbox= 20  T=  300.00K
     iter. #   944  RMS(g-h-1)= 2.380E-08  nbox= 20  T=  300.00K
     iter. #   945  RMS(g-h-1)= 2.375E-08  nbox= 20  T=  300.00K
     iter. #   946  RMS(g-h-1)= 2.383E-08  nbox= 20  T=  300.00K
     iter. #   947  RMS(g-h-1)= 2.370E-08  nbox= 20  T=  300.00K
     iter. #   948  RMS(g-h-1)= 2.366E-08  nbox= 20  T=  300.00K
     iter. #   949  RMS(g-h-1)= 2.358E-08  nbox= 20  T=  300.00K
     iter. #   950  RMS(g-h-1)= 2.347E-08  nbox= 20  T=  300.00K
     iter. #   951  RMS(g-h-1)= 2.346E-08  nbox= 20  T=  300.00K
     iter. #   952  RMS(g-h-1)= 2.350E-08  nbox= 20  T=  300.00K
     iter. #   953  RMS(g-h-1)= 2.335E-08  nbox= 20  T=  300.00K
     iter. #   954  RMS(g-h-1)= 2.323E-08  nbox= 20  T=  300.00K
     iter. #   955  RMS(g-h-1)= 2.324E-08  nbox= 20  T=  300.00K
     iter. #   956  RMS(g-h-1)= 2.320E-08  nbox= 20  T=  300.00K
     iter. #   957  RMS(g-h-1)= 2.310E-08  nbox= 20  T=  300.00K
     iter. #   958  RMS(g-h-1)= 2.305E-08  nbox= 20  T=  300.00K
     iter. #   959  RMS(g-h-1)= 2.307E-08  nbox= 20  T=  300.00K
     iter. #   960  RMS(g-h-1)= 2.305E-08  nbox= 20  T=  300.00K
     iter. #   961  RMS(g-h-1)= 2.291E-08  nbox= 20  T=  300.00K
     iter. #   962  RMS(g-h-1)= 2.288E-08  nbox= 20  T=  300.00K
     iter. #   963  RMS(g-h-1)= 2.274E-08  nbox= 20  T=  300.00K
     iter. #   964  RMS(g-h-1)= 2.272E-08  nbox= 20  T=  300.00K
     iter. #   965  RMS(g-h-1)= 2.268E-08  nbox= 20  T=  300.00K
     iter. #   966  RMS(g-h-1)= 2.266E-08  nbox= 20  T=  300.00K
     iter. #   967  RMS(g-h-1)= 2.264E-08  nbox= 20  T=  300.00K
     iter. #   968  RMS(g-h-1)= 2.261E-08  nbox= 20  T=  300.00K
     iter. #   969  RMS(g-h-1)= 2.263E-08  nbox= 20  T=  300.00K
     iter. #   970  RMS(g-h-1)= 2.278E-08  nbox= 20  T=  300.00K
     iter. #   971  RMS(g-h-1)= 2.248E-08  nbox= 20  T=  300.00K
     iter. #   972  RMS(g-h-1)= 2.260E-08  nbox= 20  T=  300.00K
     iter. #   973  RMS(g-h-1)= 2.240E-08  nbox= 20  T=  300.00K
     iter. #   974  RMS(g-h-1)= 2.235E-08  nbox= 20  T=  300.00K
     iter. #   975  RMS(g-h-1)= 2.232E-08  nbox= 20  T=  300.00K
     iter. #   976  RMS(g-h-1)= 2.234E-08  nbox= 20  T=  300.00K
     iter. #   977  RMS(g-h-1)= 2.226E-08  nbox= 20  T=  300.00K
     iter. #   978  RMS(g-h-1)= 2.223E-08  nbox= 20  T=  300.00K
     iter. #   979  RMS(g-h-1)= 2.221E-08  nbox= 20  T=  300.00K
     iter. #   980  RMS(g-h-1)= 2.225E-08  nbox= 20  T=  300.00K
     iter. #   981  RMS(g-h-1)= 2.222E-08  nbox= 20  T=  300.00K
     iter. #   982  RMS(g-h-1)= 2.220E-08  nbox= 20  T=  300.00K
     iter. #   983  RMS(g-h-1)= 2.212E-08  nbox= 20  T=  300.00K
     iter. #   984  RMS(g-h-1)= 2.210E-08  nbox= 20  T=  300.00K
     iter. #   985  RMS(g-h-1)= 2.209E-08  nbox= 20  T=  300.00K
     iter. #   986  RMS(g-h-1)= 2.207E-08  nbox= 20  T=  300.00K
     iter. #   987  RMS(g-h-1)= 2.206E-08  nbox= 20  T=  300.00K
     iter. #   988  RMS(g-h-1)= 2.204E-08  nbox= 20  T=  300.00K
     iter. #   989  RMS(g-h-1)= 2.202E-08  nbox= 20  T=  300.00K
     iter. #   990  RMS(g-h-1)= 2.199E-08  nbox= 20  T=  300.00K
     iter. #   991  RMS(g-h-1)= 2.198E-08  nbox= 20  T=  300.00K
     iter. #   992  RMS(g-h-1)= 2.197E-08  nbox= 20  T=  300.00K
     iter. #   993  RMS(g-h-1)= 2.213E-08  nbox= 20  T=  300.00K
     iter. #   994  RMS(g-h-1)= 2.192E-08  nbox= 20  T=  300.00K
     iter. #   995  RMS(g-h-1)= 2.211E-08  nbox= 20  T=  300.00K
     iter. #   996  RMS(g-h-1)= 2.186E-08  nbox= 20  T=  300.00K
     iter. #   997  RMS(g-h-1)= 2.193E-08  nbox= 20  T=  300.00K
     iter. #   998  RMS(g-h-1)= 2.177E-08  nbox= 20  T=  300.00K
     iter. #   999  RMS(g-h-1)= 2.185E-08  nbox= 20  T=  300.00K
     iter. #  1000  RMS(g-h-1)= 2.173E-08  nbox= 20  T=  300.00K
     iter. #  1001  RMS(g-h-1)= 2.187E-08  nbox= 20  T=  300.00K
     iter. #  1002  RMS(g-h-1)= 2.167E-08  nbox= 20  T=  300.00K
     iter. #  1003  RMS(g-h-1)= 2.168E-08  nbox= 20  T=  300.00K
     iter. #  1004  RMS(g-h-1)= 2.166E-08  nbox= 20  T=  300.00K
     iter. #  1005  RMS(g-h-1)= 2.165E-08  nbox= 20  T=  300.00K
     iter. #  1006  RMS(g-h-1)= 2.163E-08  nbox= 20  T=  300.00K
     iter. #  1007  RMS(g-h-1)= 2.159E-08  nbox= 20  T=  300.00K
     iter. #  1008  RMS(g-h-1)= 2.161E-08  nbox= 20  T=  300.00K
     iter. #  1009  RMS(g-h-1)= 2.158E-08  nbox= 20  T=  300.00K
     iter. #  1010  RMS(g-h-1)= 2.156E-08  nbox= 20  T=  300.00K
     iter. #  1011  RMS(g-h-1)= 2.162E-08  nbox= 20  T=  300.00K
     iter. #  1012  RMS(g-h-1)= 2.150E-08  nbox= 20  T=  300.00K
     iter. #  1013  RMS(g-h-1)= 2.154E-08  nbox= 20  T=  300.00K
     iter. #  1014  RMS(g-h-1)= 2.148E-08  nbox= 20  T=  300.00K
     iter. #  1015  RMS(g-h-1)= 2.190E-08  nbox= 20  T=  300.00K
     iter. #  1016  RMS(g-h-1)= 2.150E-08  nbox= 20  T=  300.00K
     iter. #  1017  RMS(g-h-1)= 2.147E-08  nbox= 20  T=  300.00K
     iter. #  1018  RMS(g-h-1)= 2.137E-08  nbox= 20  T=  300.00K
     iter. #  1019  RMS(g-h-1)= 2.134E-08  nbox= 20  T=  300.00K
     iter. #  1020  RMS(g-h-1)= 2.129E-08  nbox= 20  T=  300.00K
     iter. #  1021  RMS(g-h-1)= 2.166E-08  nbox= 20  T=  300.00K
     iter. #  1022  RMS(g-h-1)= 2.111E-08  nbox= 20  T=  300.00K
     iter. #  1023  RMS(g-h-1)= 2.106E-08  nbox= 20  T=  300.00K
     iter. #  1024  RMS(g-h-1)= 2.105E-08  nbox= 20  T=  300.00K
     iter. #  1025  RMS(g-h-1)= 2.112E-08  nbox= 20  T=  300.00K
     iter. #  1026  RMS(g-h-1)= 2.104E-08  nbox= 20  T=  300.00K
     iter. #  1027  RMS(g-h-1)= 2.094E-08  nbox= 20  T=  300.00K
     iter. #  1028  RMS(g-h-1)= 2.088E-08  nbox= 20  T=  300.00K
     iter. #  1029  RMS(g-h-1)= 2.087E-08  nbox= 20  T=  300.00K
     iter. #  1030  RMS(g-h-1)= 2.078E-08  nbox= 20  T=  300.00K
     iter. #  1031  RMS(g-h-1)= 2.080E-08  nbox= 20  T=  300.00K
     iter. #  1032  RMS(g-h-1)= 2.084E-08  nbox= 20  T=  300.00K
     iter. #  1033  RMS(g-h-1)= 2.065E-08  nbox= 20  T=  300.00K
     iter. #  1034  RMS(g-h-1)= 2.063E-08  nbox= 20  T=  300.00K
     iter. #  1035  RMS(g-h-1)= 2.061E-08  nbox= 20  T=  300.00K
     iter. #  1036  RMS(g-h-1)= 2.055E-08  nbox= 20  T=  300.00K
     iter. #  1037  RMS(g-h-1)= 2.054E-08  nbox= 20  T=  300.00K
     iter. #  1038  RMS(g-h-1)= 2.047E-08  nbox= 20  T=  300.00K
     iter. #  1039  RMS(g-h-1)= 2.047E-08  nbox= 20  T=  300.00K
     iter. #  1040  RMS(g-h-1)= 2.085E-08  nbox= 20  T=  300.00K
     iter. #  1041  RMS(g-h-1)= 2.033E-08  nbox= 20  T=  300.00K
     iter. #  1042  RMS(g-h-1)= 2.030E-08  nbox= 20  T=  300.00K
     iter. #  1043  RMS(g-h-1)= 2.020E-08  nbox= 20  T=  300.00K
     iter. #  1044  RMS(g-h-1)= 2.038E-08  nbox= 20  T=  300.00K
     iter. #  1045  RMS(g-h-1)= 2.013E-08  nbox= 20  T=  300.00K
     iter. #  1046  RMS(g-h-1)= 2.005E-08  nbox= 20  T=  300.00K
     iter. #  1047  RMS(g-h-1)= 1.999E-08  nbox= 20  T=  300.00K
     iter. #  1048  RMS(g-h-1)= 2.001E-08  nbox= 20  T=  300.00K
     iter. #  1049  RMS(g-h-1)= 1.996E-08  nbox= 20  T=  300.00K
     iter. #  1050  RMS(g-h-1)= 1.995E-08  nbox= 20  T=  300.00K
     iter. #  1051  RMS(g-h-1)= 1.993E-08  nbox= 20  T=  300.00K
     iter. #  1052  RMS(g-h-1)= 2.003E-08  nbox= 20  T=  300.00K
     iter. #  1053  RMS(g-h-1)= 1.991E-08  nbox= 20  T=  300.00K
     iter. #  1054  RMS(g-h-1)= 1.985E-08  nbox= 20  T=  300.00K
     iter. #  1055  RMS(g-h-1)= 1.991E-08  nbox= 20  T=  300.00K
     iter. #  1056  RMS(g-h-1)= 1.982E-08  nbox= 20  T=  300.00K
     iter. #  1057  RMS(g-h-1)= 1.975E-08  nbox= 20  T=  300.00K
     iter. #  1058  RMS(g-h-1)= 1.971E-08  nbox= 20  T=  300.00K
     iter. #  1059  RMS(g-h-1)= 1.973E-08  nbox= 20  T=  300.00K
     iter. #  1060  RMS(g-h-1)= 1.968E-08  nbox= 20  T=  300.00K
     iter. #  1061  RMS(g-h-1)= 1.961E-08  nbox= 20  T=  300.00K
     iter. #  1062  RMS(g-h-1)= 1.975E-08  nbox= 20  T=  300.00K
     iter. #  1063  RMS(g-h-1)= 1.952E-08  nbox= 20  T=  300.00K
     iter. #  1064  RMS(g-h-1)= 1.948E-08  nbox= 20  T=  300.00K
     iter. #  1065  RMS(g-h-1)= 1.943E-08  nbox= 20  T=  300.00K
     iter. #  1066  RMS(g-h-1)= 1.942E-08  nbox= 20  T=  300.00K
     iter. #  1067  RMS(g-h-1)= 1.938E-08  nbox= 20  T=  300.00K
     iter. #  1068  RMS(g-h-1)= 1.941E-08  nbox= 20  T=  300.00K
     iter. #  1069  RMS(g-h-1)= 1.942E-08  nbox= 20  T=  300.00K
     iter. #  1070  RMS(g-h-1)= 1.933E-08  nbox= 20  T=  300.00K
     iter. #  1071  RMS(g-h-1)= 1.931E-08  nbox= 20  T=  300.00K
     iter. #  1072  RMS(g-h-1)= 1.936E-08  nbox= 20  T=  300.00K
     iter. #  1073  RMS(g-h-1)= 2.027E-08  nbox= 20  T=  300.00K
     iter. #  1074  RMS(g-h-1)= 1.992E-08  nbox= 20  T=  300.00K
     iter. #  1075  RMS(g-h-1)= 1.992E-08  nbox= 20  T=  300.00K
     iter. #  1076  RMS(g-h-1)= 1.925E-08  nbox= 20  T=  300.00K
     iter. #  1077  RMS(g-h-1)= 1.920E-08  nbox= 20  T=  300.00K
     iter. #  1078  RMS(g-h-1)= 1.915E-08  nbox= 20  T=  300.00K
     iter. #  1079  RMS(g-h-1)= 1.914E-08  nbox= 20  T=  300.00K
     iter. #  1080  RMS(g-h-1)= 1.954E-08  nbox= 20  T=  300.00K
     iter. #  1081  RMS(g-h-1)= 1.908E-08  nbox= 20  T=  300.00K
     iter. #  1082  RMS(g-h-1)= 1.903E-08  nbox= 20  T=  300.00K
     iter. #  1083  RMS(g-h-1)= 1.903E-08  nbox= 20  T=  300.00K
     iter. #  1084  RMS(g-h-1)= 1.905E-08  nbox= 20  T=  300.00K
     iter. #  1085  RMS(g-h-1)= 1.901E-08  nbox= 20  T=  300.00K
     iter. #  1086  RMS(g-h-1)= 1.901E-08  nbox= 20  T=  300.00K
     iter. #  1087  RMS(g-h-1)= 1.901E-08  nbox= 20  T=  300.00K
     iter. #  1088  RMS(g-h-1)= 1.902E-08  nbox= 20  T=  300.00K
     iter. #  1089  RMS(g-h-1)= 1.957E-08  nbox= 20  T=  300.00K
     iter. #  1090  RMS(g-h-1)= 1.956E-08  nbox= 20  T=  300.00K
     iter. #  1091  RMS(g-h-1)= 1.959E-08  nbox= 20  T=  300.00K
     iter. #  1092  RMS(g-h-1)= 1.955E-08  nbox= 20  T=  300.00K
     iter. #  1093  RMS(g-h-1)= 1.958E-08  nbox= 20  T=  300.00K
     iter. #  1094  RMS(g-h-1)= 1.936E-08  nbox= 20  T=  300.00K
     iter. #  1095  RMS(g-h-1)= 1.919E-08  nbox= 20  T=  300.00K
     iter. #  1096  RMS(g-h-1)= 1.943E-08  nbox= 20  T=  300.00K
     iter. #  1097  RMS(g-h-1)= 1.910E-08  nbox= 20  T=  300.00K
     iter. #  1098  RMS(g-h-1)= 1.937E-08  nbox= 20  T=  300.00K
     iter. #  1099  RMS(g-h-1)= 1.934E-08  nbox= 20  T=  300.00K
     iter. #  1100  RMS(g-h-1)= 1.963E-08  nbox= 20  T=  300.00K
     iter. #  1101  RMS(g-h-1)= 1.943E-08  nbox= 20  T=  300.00K
     iter. #  1102  RMS(g-h-1)= 1.894E-08  nbox= 20  T=  300.00K
     iter. #  1103  RMS(g-h-1)= 1.894E-08  nbox= 20  T=  300.00K
     iter. #  1104  RMS(g-h-1)= 1.992E-08  nbox= 20  T=  300.00K
     iter. #  1105  RMS(g-h-1)= 2.015E-08  nbox= 20  T=  300.00K
     iter. #  1106  RMS(g-h-1)= 1.892E-08  nbox= 20  T=  300.00K
[...]
     -----------------------------------------------


     Laue-RISM Calculation

     convergence threshold    = 1.000E-06
     iter. #     1  RMS(g-h-1)= 9.862E-07  nbox=  0

     End of Laue-RISM calculation


     convergence has been achieved in     1 iterations


     solvent charge    0.00003, renormalised to    0.00000

     Total number of solvent (in expand-cell)
     H2O         1126.693220
     K+            20.394553
     OH-           20.394571

     Total charge of solvent (in expand-cell)
     H2O            0.000000 e
     K+            20.394553 e
     OH-          -20.394527 e
     Total          0.000026 e

     Chemical potential of solvation (in expand-cell)
     H2O        GaussFluct  -0.699697E+01 kcal/mol
     K+         GaussFluct  -0.913975E+00 kcal/mol
     OH-        GaussFluct  -0.914532E+00 kcal/mol
     Total      GaussFluct  -0.882548E+01 kcal/mol


     total cpu time spent up to now is     2213.1 secs

     total energy              =     -45.04633292 Ry
     Harris-Foulkes estimate   =     -45.04633291 Ry
     estimated scf accuracy    <          1.8E-10 Ry

     iteration #111     ecut=    62.47 Ry     beta=0.33
     RMM-DIIS diagonalization
     ethr =  1.64E-13,  avg # of iterations =  3.0

     negative rho (up, down):  1.571E-03 0.000E+00


     -----------------------------------------------
     Non-local corr. energy    =       0.13598672 Ry
     -----------------------------------------------


     Laue-RISM Calculation

     convergence threshold    = 1.000E-06
     iter. #     1  RMS(g-h-1)= 9.959E-07  nbox=  0

     End of Laue-RISM calculation


     convergence has been achieved in     1 iterations


     solvent charge    0.00004, renormalised to    0.00000

     Total number of solvent (in expand-cell)
     H2O         1126.693219
     K+            20.394554
     OH-           20.394570

     Total charge of solvent (in expand-cell)
     H2O            0.000008 e
     K+            20.394554 e
     OH-          -20.394526 e
     Total          0.000035 e

     Chemical potential of solvation (in expand-cell)
     H2O        GaussFluct  -0.699697E+01 kcal/mol
     K+         GaussFluct  -0.913971E+00 kcal/mol
     OH-        GaussFluct  -0.914531E+00 kcal/mol
     Total      GaussFluct  -0.882547E+01 kcal/mol


     total cpu time spent up to now is     2221.3 secs

     total energy              =     -45.04633293 Ry
     Harris-Foulkes estimate   =     -45.04633292 Ry
     estimated scf accuracy    <          4.3E-11 Ry

     iteration #112     ecut=    62.47 Ry     beta=0.33
     RMM-DIIS diagonalization
     ethr =  1.64E-13,  avg # of iterations =  2.6

     negative rho (up, down):  1.571E-03 0.000E+00


     -----------------------------------------------
     Non-local corr. energy    =       0.13598676 Ry
     -----------------------------------------------


     Laue-RISM Calculation

     convergence threshold    = 1.000E-06
     iter. #     1  RMS(g-h-1)= 9.890E-07  nbox=  0

     End of Laue-RISM calculation


     convergence has been achieved in     1 iterations


     solvent charge    0.00002, renormalised to    0.00000

     Total number of solvent (in expand-cell)
     H2O         1126.693218
     K+            20.394553
     OH-           20.394571

     Total charge of solvent (in expand-cell)
     H2O           -0.000001 e
     K+            20.394553 e
     OH-          -20.394528 e
     Total          0.000023 e

     Chemical potential of solvation (in expand-cell)
     H2O        GaussFluct  -0.699700E+01 kcal/mol
     K+         GaussFluct  -0.913979E+00 kcal/mol
     OH-        GaussFluct  -0.914542E+00 kcal/mol
     Total      GaussFluct  -0.882552E+01 kcal/mol


     total cpu time spent up to now is     2229.5 secs

     total energy              =     -45.04633288 Ry
     Harris-Foulkes estimate   =     -45.04633293 Ry
     estimated scf accuracy    <          3.8E-11 Ry

     iteration #113     ecut=    62.47 Ry     beta=0.33
     RMM-DIIS diagonalization
     ethr =  1.64E-13,  avg # of iterations =  3.0

     negative rho (up, down):  1.571E-03 0.000E+00


     -----------------------------------------------
     Non-local corr. energy    =       0.13598676 Ry
     -----------------------------------------------


     Laue-RISM Calculation

     convergence threshold    = 1.000E-06
     iter. #     1  RMS(g-h-1)= 9.968E-07  nbox=  0

     End of Laue-RISM calculation


     convergence has been achieved in     1 iterations


     solvent charge    0.00002, renormalised to    0.00000

     Total number of solvent (in expand-cell)
     H2O         1126.693217
     K+            20.394553
     OH-           20.394572

     Total charge of solvent (in expand-cell)
     H2O           -0.000002 e
     K+            20.394553 e
     OH-          -20.394528 e
     Total          0.000022 e

     Chemical potential of solvation (in expand-cell)
     H2O        GaussFluct  -0.699701E+01 kcal/mol
     K+         GaussFluct  -0.913979E+00 kcal/mol
     OH-        GaussFluct  -0.914543E+00 kcal/mol
     Total      GaussFluct  -0.882553E+01 kcal/mol


     total cpu time spent up to now is     2237.7 secs

     total energy              =     -45.04633288 Ry
     Harris-Foulkes estimate   =     -45.04633288 Ry
     estimated scf accuracy    <          3.3E-11 Ry

     iteration #114     ecut=    62.47 Ry     beta=0.33
     RMM-DIIS diagonalization
     ethr =  1.64E-13,  avg # of iterations =  2.5

     negative rho (up, down):  1.571E-03 0.000E+00


     -----------------------------------------------
     Non-local corr. energy    =       0.13598676 Ry
     -----------------------------------------------


     Laue-RISM Calculation

     convergence threshold    = 1.000E-06
     iter. #     1  RMS(g-h-1)= 9.868E-07  nbox=  0

     End of Laue-RISM calculation


     convergence has been achieved in     1 iterations


     solvent charge    0.00002, renormalised to    0.00000

     Total number of solvent (in expand-cell)
     H2O         1126.693220
     K+            20.394553
     OH-           20.394572

     Total charge of solvent (in expand-cell)
     H2O           -0.000004 e
     K+            20.394553 e
     OH-          -20.394529 e
     Total          0.000020 e

     Chemical potential of solvation (in expand-cell)
     H2O        GaussFluct  -0.699701E+01 kcal/mol
     K+         GaussFluct  -0.913977E+00 kcal/mol
     OH-        GaussFluct  -0.914537E+00 kcal/mol
     Total      GaussFluct  -0.882552E+01 kcal/mol


     total cpu time spent up to now is     2245.8 secs

     total energy              =     -45.04633285 Ry
     Harris-Foulkes estimate   =     -45.04633288 Ry
     estimated scf accuracy    <          4.3E-11 Ry

     iteration #115     ecut=    62.47 Ry     beta=0.33
     RMM-DIIS diagonalization
     ethr =  1.64E-13,  avg # of iterations =  2.5

     negative rho (up, down):  1.571E-03 0.000E+00


     -----------------------------------------------
     Non-local corr. energy    =       0.13598675 Ry
     -----------------------------------------------


     Laue-RISM Calculation

     convergence threshold    = 1.000E-06
     iter. #     1  RMS(g-h-1)= 9.902E-07  nbox=  0

     End of Laue-RISM calculation


     convergence has been achieved in     1 iterations


     solvent charge    0.00003, renormalised to    0.00000

     Total number of solvent (in expand-cell)
     H2O         1126.693220
     K+            20.394553
     OH-           20.394571

     Total charge of solvent (in expand-cell)
     H2O            0.000001 e
     K+            20.394553 e
     OH-          -20.394528 e
     Total          0.000026 e

     Chemical potential of solvation (in expand-cell)
     H2O        GaussFluct  -0.699701E+01 kcal/mol
     K+         GaussFluct  -0.913970E+00 kcal/mol
     OH-        GaussFluct  -0.914532E+00 kcal/mol
     Total      GaussFluct  -0.882551E+01 kcal/mol


     total cpu time spent up to now is     2253.9 secs

     total energy              =     -45.04633286 Ry
     Harris-Foulkes estimate   =     -45.04633285 Ry
     estimated scf accuracy    <          3.9E-11 Ry

     iteration #116     ecut=    62.47 Ry     beta=0.33
     RMM-DIIS diagonalization
     ethr =  1.64E-13,  avg # of iterations =  2.5

     negative rho (up, down):  1.571E-03 0.000E+00


     -----------------------------------------------
     Non-local corr. energy    =       0.13598672 Ry
     -----------------------------------------------


     Laue-RISM Calculation

     convergence threshold    = 1.000E-06
     iter. #     1  RMS(g-h-1)= 9.693E-07  nbox=  0

     End of Laue-RISM calculation


     convergence has been achieved in     1 iterations


     solvent charge    0.00003, renormalised to    0.00000

     Total number of solvent (in expand-cell)
     H2O         1126.693224
     K+            20.394554
     OH-           20.394571

     Total charge of solvent (in expand-cell)
     H2O            0.000006 e
     K+            20.394554 e
     OH-          -20.394528 e
     Total          0.000033 e

     Chemical potential of solvation (in expand-cell)
     H2O        GaussFluct  -0.699700E+01 kcal/mol
     K+         GaussFluct  -0.913973E+00 kcal/mol
     OH-        GaussFluct  -0.914528E+00 kcal/mol
     Total      GaussFluct  -0.882550E+01 kcal/mol


     total cpu time spent up to now is     2262.0 secs

     total energy              =     -45.04633285 Ry
     Harris-Foulkes estimate   =     -45.04633286 Ry
     estimated scf accuracy    <          5.5E-11 Ry

     iteration #117     ecut=    62.47 Ry     beta=0.33
     RMM-DIIS diagonalization
     ethr =  1.64E-13,  avg # of iterations =  2.5

     negative rho (up, down):  1.571E-03 0.000E+00


     -----------------------------------------------
     Non-local corr. energy    =       0.13598672 Ry
     -----------------------------------------------


     Laue-RISM Calculation

     convergence threshold    = 1.000E-06
     iter. #     1  RMS(g-h-1)= 9.629E-07  nbox=  0

     End of Laue-RISM calculation


     convergence has been achieved in     1 iterations


     solvent charge    0.00003, renormalised to    0.00000

     Total number of solvent (in expand-cell)
     H2O         1126.693226
     K+            20.394555
     OH-           20.394571

     Total charge of solvent (in expand-cell)
     H2O            0.000007 e
     K+            20.394555 e
     OH-          -20.394528 e
     Total          0.000033 e

     Chemical potential of solvation (in expand-cell)
     H2O        GaussFluct  -0.699700E+01 kcal/mol
     K+         GaussFluct  -0.913978E+00 kcal/mol
     OH-        GaussFluct  -0.914527E+00 kcal/mol
     Total      GaussFluct  -0.882550E+01 kcal/mol


     total cpu time spent up to now is     2270.1 secs

     total energy              =     -45.04633284 Ry
     Harris-Foulkes estimate   =     -45.04633285 Ry
     estimated scf accuracy    <          2.1E-11 Ry

     iteration #118     ecut=    62.47 Ry     beta=0.33
     RMM-DIIS diagonalization
     ethr =  1.64E-13,  avg # of iterations =  3.0

     negative rho (up, down):  1.571E-03 0.000E+00


     -----------------------------------------------
     Non-local corr. energy    =       0.13598669 Ry
     -----------------------------------------------


     Laue-RISM Calculation

     convergence threshold    = 1.000E-06
     iter. #     1  RMS(g-h-1)= 9.766E-07  nbox=  0

     End of Laue-RISM calculation


     convergence has been achieved in     1 iterations


     solvent charge    0.00005, renormalised to    0.00000

     Total number of solvent (in expand-cell)
     H2O         1126.693229
     K+            20.394557
     OH-           20.394571

     Total charge of solvent (in expand-cell)
     H2O            0.000019 e
     K+            20.394557 e
     OH-          -20.394528 e
     Total          0.000049 e

     Chemical potential of solvation (in expand-cell)
     H2O        GaussFluct  -0.699704E+01 kcal/mol
     K+         GaussFluct  -0.914005E+00 kcal/mol
     OH-        GaussFluct  -0.914547E+00 kcal/mol
     Total      GaussFluct  -0.882559E+01 kcal/mol


     total cpu time spent up to now is     2278.2 secs

     End of self-consistent calculation

          k = 0.0000 0.0000 0.0000 (450127 PWs)   bands (ev):

   -25.3974 -13.1738  -9.7585  -7.7197  -1.1147  -0.1338   0.1137   0.1305
     0.1435   0.1953   0.1978   0.3267   0.4044   0.4310   0.4443   0.5586
     0.5596   0.5614   0.5708   0.5752

     occupation numbers 
     1.0000   1.0000   1.0000   1.0000   0.0000   0.0000   0.0000   0.0000
     0.0000   0.0000   0.0000   0.0000   0.0000   0.0000   0.0000   0.0000
     0.0000   0.0000   0.0000   0.0000

     highest occupied, lowest unoccupied level (ev):    -7.7197   -1.1147

!    total energy              =     -45.04633276 Ry
     Harris-Foulkes estimate   =     -45.04633284 Ry
     estimated scf accuracy    <          6.3E-12 Ry

     total all-electron energy =      -153.893215 Ry

     The total energy is the sum of the following terms:

     one-electron contribution =     -68.70495198 Ry
     hartree contribution      =      36.08170593 Ry
     xc contribution           =      -9.21395016 Ry
     ewald contribution        =       7.04335742 Ry
     one-center paw contrib.   =     -10.22434621 Ry
      -> PAW hartree energy AE =      27.92326569 Ry
      -> PAW hartree energy PS =     -27.88871312 Ry
      -> PAW xc energy AE      =     -17.90475311 Ry
      -> PAW xc energy PS      =       7.64708063 Ry
      -> total E_H with PAW    =      36.11625850 Ry
      -> total E_XC with PAW   =     -19.47162265 Ry
     solvation energy (RISM)   =      -0.02814777 Ry

     convergence has been achieved in 118 iterations

     negative rho (up, down):  1.571E-03 0.000E+00


     -----------------------------------------------
     Non-local corr. energy    =       0.13598669 Ry
     -----------------------------------------------


     Forces acting on atoms (cartesian axes, Ry/au):

     atom    1 type  1   force =     0.00000000    0.00836142    0.00751817
     atom    2 type  2   force =     0.00000000   -0.00741726   -0.00705824
     atom    3 type  2   force =     0.00000000   -0.00094416   -0.00046326
     The non-local contrib.  to forces
     atom    1 type  1   force =     0.00000000   -0.01388567    2.31532772
     atom    2 type  2   force =     0.00000000   -0.08851940   -0.06619961
     atom    3 type  2   force =     0.00000000    0.09096721   -0.06696341
     The ionic contribution  to forces
     atom    1 type  1   force =     0.00000000    0.05204830   -4.32795561
     atom    2 type  2   force =     0.00000000    2.96014609    2.16295074
     atom    3 type  2   force =     0.00000000   -3.01219439    2.16500487
     The local contribution  to forces
     atom    1 type  1   force =     0.00000707   -0.02953580    1.78846253
     atom    2 type  2   force =     0.00000060   -2.90344818   -2.15231677
     atom    3 type  2   force =     0.00000060    2.94454089   -2.14656537
     The core correction contribution to forces
     atom    1 type  1   force =    -0.00000007    0.00010185   -0.02217039
     atom    2 type  2   force =     0.00000000    0.00000000    0.00000000
     atom    3 type  2   force =     0.00000000    0.00000000    0.00000000
     The Hubbard contrib.    to forces
     atom    1 type  1   force =     0.00000000    0.00000000    0.00000000
     atom    2 type  2   force =     0.00000000    0.00000000    0.00000000
     atom    3 type  2   force =     0.00000000    0.00000000    0.00000000
     The SCF correction term to forces
     atom    1 type  1   force =     0.00000000    0.00000040    0.00000977
     atom    2 type  2   force =     0.00000000   -0.00000044    0.00000030
     atom    3 type  2   force =     0.00000000    0.00000048    0.00000035

     3D-RISM Solvation contribution to forces:
     atom    1 type  1   force =    -0.00000040   -0.00036627    0.25384414
     atom    2 type  2   force =    -0.00000006    0.02440606    0.04850710
     atom    3 type  2   force =    -0.00000006   -0.02425696    0.04806031

     Total force =     0.015244     Total SCF correction =     0.000010

     Total 3D-RISM Solvation Force =     0.265111

     Writing output data file H2O-IR_ESM-RISM.save
 
     init_run     :    231.73s CPU    116.56s WALL (       1 calls)
     electrons    :   4230.10s CPU   2128.66s WALL (       1 calls)
     forces       :     10.36s CPU      5.28s WALL (       1 calls)

     Called by init_run:
     wfcinit      :      0.18s CPU      0.19s WALL (       1 calls)
     wfcinit:atom :      0.00s CPU      0.00s WALL (       1 calls)
     wfcinit:wfcr :      0.18s CPU      0.18s WALL (       1 calls)
     potinit      :    199.31s CPU     99.94s WALL (       1 calls)

     Called by electrons:
     c_bands      :     86.91s CPU     43.13s WALL (     118 calls)
     sum_band     :     59.82s CPU     32.69s WALL (     118 calls)
     v_of_rho     :    752.85s CPU    383.00s WALL (     119 calls)
     v_h          :     19.30s CPU      9.42s WALL (     238 calls)
     v_xc         :    749.96s CPU    380.98s WALL (     120 calls)
     newd         :      8.59s CPU      5.49s WALL (     119 calls)
     PAW_pot      :     12.40s CPU      5.22s WALL (     119 calls)
     mix_rho      :     16.35s CPU      8.32s WALL (     118 calls)

     Called by c_bands:
     init_us_2    :      0.09s CPU      0.09s WALL (     237 calls)
     crmmdiagg    :     46.10s CPU     21.40s WALL (     118 calls)
     wfcrot       :     40.17s CPU     21.30s WALL (     118 calls)
     gsorth       :      0.35s CPU      0.36s WALL (     118 calls)

     Called by sum_band:
     sum_band:bec :      0.00s CPU      0.00s WALL (     118 calls)
     addusdens    :      6.61s CPU      5.51s WALL (     118 calls)

     Called by *rmmdiagg:
     h_psi        :     76.82s CPU     36.16s WALL (     465 calls)
     s_psi        :      0.03s CPU      0.04s WALL (     465 calls)
     cdiaghg      :      5.77s CPU      3.89s WALL (     118 calls)
     cdiaghg:chol :      0.11s CPU      0.11s WALL (     118 calls)
     cdiaghg:inve :      0.02s CPU      0.02s WALL (     118 calls)
     cdiaghg:para :      0.10s CPU      0.10s WALL (     236 calls)

     Called by h_psi:
     h_psi:pot    :     76.79s CPU     36.13s WALL (     465 calls)
     h_psi:calbec :      1.50s CPU      0.17s WALL (     465 calls)
     vloc_psi     :     75.24s CPU     35.92s WALL (     465 calls)
     add_vuspsi   :      0.03s CPU      0.04s WALL (     465 calls)

     General routines
     calbec       :      1.55s CPU      0.22s WALL (     587 calls)
     fft          :    521.94s CPU    265.39s WALL (    8269 calls)
     ffts         :      2.65s CPU      1.61s WALL (     237 calls)
     fftw         :     84.57s CPU     41.00s WALL (   13486 calls)
     fftc         :      1.59s CPU      1.60s WALL (     238 calls)
     interpolate  :     16.41s CPU      9.17s WALL (     237 calls)
 
     Parallel routines
     fft_scatter  :    688.54s CPU    353.76s WALL (   43085 calls)

     PAW routines
     PAW_pot      :     12.40s CPU      5.22s WALL (     119 calls)
     PAW_symme    :      0.04s CPU      0.04s WALL (     237 calls)

     RISM routines
     1DRISM_pre   :      0.00s CPU      0.00s WALL (       1 calls)
     1DRISM_run   :     56.82s CPU     29.84s WALL (       1 calls)
     3DRISM_pre   :     18.76s CPU      9.46s WALL (       1 calls)
     3DRISM_run   :   3442.01s CPU   1724.84s WALL (     119 calls)
     3DRISM_for   :      0.29s CPU      0.29s WALL (       1 calls)
     3DRISM_vsol  :      6.91s CPU      3.71s WALL (     119 calls)
 
     PWSCF        :     1h16m CPU        0h38m WALL

 
   This run was terminated on:  19:55:52   9Feb2026            

=------------------------------------------------------------------------------=
   JOB DONE.
=------------------------------------------------------------------------------=
