
     Program PWSCF v.6.1 starts on 10Feb2026 at 20:10: 5 

     This program is part of the open-source Quantum ESPRESSO suite
     for quantum simulation of materials; please cite
         "P. Giannozzi et al., J. Phys.:Condens. Matter 21 395502 (2009);
          URL http://www.quantum-espresso.org", 
     in publications or presentations arising from this work. More details at
     http://www.quantum-espresso.org/quote

     Parallel version (MPI & OpenMP), running on     480 processor cores
     Number of MPI processes:               240
     Threads/MPI process:                     2
     R & G space division:  proc/nbgrp/npool/nimage =     240
     Reading input from espresso.pwi

     Current dimensions of program PWSCF are:
     Max number of different atomic species (ntypx) = 10
     Max number of k-points (npk) =  40000
     Max angular momentum in pseudopotentials (lmaxx) =  3

     IMPORTANT: XC functional enforced from input :
     Exchange-correlation      = VDW-DF2 ( 1  4 13  0 2 0)
     Any further DFT definition will be discarded
     Please, verify this is what you really want

               file Cu.pbe-dn-kjpaw_psl.1.0.0.UPF: wavefunction(s)  4S 3D renormalized
               file C.pbe-n-kjpaw_psl.1.0.0.UPF: wavefunction(s)  2S 2P renormalized
               file O.pbe-n-kjpaw_psl.1.0.0.UPF: wavefunction(s)  2S 2P renormalized
     Message from routine iosys_1drism:
     default density from MOL file(H2O.tip5p.MOL) is used

     Subspace diagonalization in iterative solution of the eigenvalue problem:
     one sub-group per band group will be used
     ELPA distributed-memory algorithm (size of sub-group: 10* 10 procs)


     Molecule # 1 for H2O read from file:
     /work/gf93/f93007/QE/pseudo/H2O.tip5p.MOL
     Density:
         0.72794769E+02 cell^-1
         0.49533750E-02 bohr^-3
         0.55506881E+02 mol/L
         0.99997200E+00 g/cm^3
     Permittivity:
        78.355300
     Number of atoms:   5
     Atoms:
       #  atom      X (angs)      Y (angs)      Z (angs)      Q (e)         E (kcal/mol)  S (angs)
       1  O/h2o     0.00000000    0.00000000    0.00000000    0.00000000    0.16000000    3.12000000
       2  H/h2o     0.75695000    0.58588000    0.00000000    0.24100000    0.04600000    1.00000000
       3  H/h2o    -0.75695000    0.58588000    0.00000000    0.24100000    0.04600000    1.00000000
       4  L/h2o     0.00000000   -0.40415000    0.57154000   -0.24100000    0.04600000    1.80000000
       5  L/h2o     0.00000000   -0.40415000   -0.57154000   -0.24100000    0.04600000    1.80000000


     Molecule # 2 for K+ read from file:
     /work/gf93/f93007/QE/pseudo/K+.oplsaa.MOL
     Density:
         0.13114549E+01 cell^-1
         0.89238936E-04 bohr^-3
         0.10000000E+01 mol/L
         0.39098300E-01 g/cm^3
     Number of atoms:   1
     Atoms:
       #  atom      X (angs)      Y (angs)      Z (angs)      Q (e)         E (kcal/mol)  S (angs)
       1  K         0.00000000    0.00000000    0.00000000    1.00000000    0.00032800    4.93462800


     Molecule # 3 for OH- read from file:
     /work/gf93/f93007/QE/pseudo/OH-.oplsaa.MOL
     Density:
         0.13114549E+01 cell^-1
         0.89238936E-04 bohr^-3
         0.10000000E+01 mol/L
         0.17007340E-01 g/cm^3
     Number of atoms:   2
     Atoms:
       #  atom      X (angs)      Y (angs)      Z (angs)      Q (e)         E (kcal/mol)  S (angs)
       1  O/oh      0.00000000    0.00000000    0.00000000   -1.30000000    0.25000000    3.20000000
       2  H/oh      0.95300000    0.00000000    0.00000000    0.30000000    0.04600000    1.00000000


     Number of total sites:   8
     Index site -> solvent: 
       1  1  1  1  1  2  3  3
     Index site -> atom (in a solvent): 
       1  2  3  4  5  1  1  2


     Number of unique sites:   6
     Multiplicity of unique site: 
       1  2  2  1  1  1
     Index unique site -> site: 
       1:  1
       2:  2  3
       3:  4  5
       4:  6
       5:  7
       6:  8


     1D-RISM info
     ------------
     closure equation        =           KH
     temperature             =     300.0000  kelvin
     coulomb smearing radius =       2.0000  bohr
     number of solvent sites =            8
     nv * (nv + 1) / 2       =           36
     number of grids         =         8345
     maximum of R-space      =     999.8802  bohr
     maximum of G-space      =      26.2150  bohr^-1
     #R-grids in local       =           66
     #G-grids in local       =           66
     number of iterations    =       100000
     convergence threshold   =      1.0E-08
     Gaussian width of bonds =       0.2530  bohr
     size of MDIIS           =           20
     step of MDIIS           =       0.1000
     number of processes     =          128


     Radial FFT:
     number of radial grids   =         8345
     number of FFT grids      =        16689
     good number of FFT grids =           -1
     R-space grids:
       0.00000000E+00  0.11983223E+00  0.23966447E+00  0.35949670E+00  0.47932894E+00
       0.59916117E+00  0.71899341E+00  0.83882564E+00  0.95865788E+00  0.10784901E+01
       ..............  ..............  ..............  ..............  ..............
       0.99880168E+03  0.99892151E+03  0.99904134E+03  0.99916117E+03  0.99928101E+03
       0.99940084E+03  0.99952067E+03  0.99964050E+03  0.99976034E+03  0.99988017E+03
     G-space grids:
       0.00000000E+00  0.31417809E-02  0.62835618E-02  0.94253427E-02  0.12567124E-01
       0.15708904E-01  0.18850685E-01  0.21992466E-01  0.25134247E-01  0.28276028E-01
       ..............  ..............  ..............  ..............  ..............
       0.26186744E+02  0.26189886E+02  0.26193027E+02  0.26196169E+02  0.26199311E+02
       0.26202453E+02  0.26205594E+02  0.26208736E+02  0.26211878E+02  0.26215020E+02


     MPI for site:
     number of site groups     =          128
     #procs in a site group    =            1
     this proc in a site group =            0
     the root in a site group  =            0
     this site group           =            0
     inter-site group comm.    =           20
     intra-site group comm.    =            2
     total number of sites     =           36
     starting index of sites   =            1
     ending index of sites     =            1


     MPI for task:
     #procs in a task group    =          128
     this proc in a task group =            0
     the root in a task group  =            0
     task group comm.          =           20
     total number of vectors   =         8345
     starting index of vectors =            1
     ending index of vectors   =           66
     lengths of vectors        = 
        66   66   66   66   66   66   66   66   66   66
        66   66   66   66   66   66   66   66   66   66
        66   66   66   66   66   65   65   65   65   65
        65   65   65   65   65   65   65   65   65   65
        65   65   65   65   65   65   65   65   65   65
        65   65   65   65   65   65   65   65   65   65
        65   65   65   65   65   65   65   65   65   65
        65   65   65   65   65   65   65   65   65   65
        65   65   65   65   65   65   65   65   65   65
        65   65   65   65   65   65   65   65   65   65
        65   65   65   65   65   65   65   65   65   65
        65   65   65   65   65   65   65   65   65   65
        65   65   65   65   65   65   65   65
     displacement of vectors   = 
         0   66  132  198  264  330  396  462  528  594
       660  726  792  858  924  990 1056 1122 1188 1254
      1320 1386 1452 1518 1584 1650 1715 1780 1845 1910
      1975 2040 2105 2170 2235 2300 2365 2430 2495 2560
      2625 2690 2755 2820 2885 2950 3015 3080 3145 3210
      3275 3340 3405 3470 3535 3600 3665 3730 3795 3860
      3925 3990 4055 4120 4185 4250 4315 4380 4445 4510
      4575 4640 4705 4770 4835 4900 4965 5030 5095 5160
      5225 5290 5355 5420 5485 5550 5615 5680 5745 5810
      5875 5940 6005 6070 6135 6200 6265 6330 6395 6460
      6525 6590 6655 6720 6785 6850 6915 6980 7045 7110
      7175 7240 7305 7370 7435 7500 7565 7630 7695 7760
      7825 7890 7955 8020 8085 8150 8215 8280


     Correlation function is read from file


     1D-RISM Calculation

     iter. #     1  RMS(g-h-1)= 9.995E-09  nbox=  0  T=  300.00K

     End of 1D-RISM calculation


     convergence has been achieved in     1 iterations


     Chemical potential of solvation

     H2O        H2O        Closure      0.106068E+01 kcal/mol
                           GaussFluct  -0.737993E+01 kcal/mol

                K+         Closure     -0.288345E+00 kcal/mol
                           GaussFluct  -0.358438E+00 kcal/mol

                OH-        Closure     -0.764259E+00 kcal/mol
                           GaussFluct  -0.855991E+00 kcal/mol

                Total      Closure      0.808077E-02 kcal/mol
                           GaussFluct  -0.859435E+01 kcal/mol

     K+         H2O        Closure     -0.160051E+02 kcal/mol
                           GaussFluct  -0.198958E+02 kcal/mol

                K+         Closure      0.351561E+06 kcal/mol
                           GaussFluct   0.351561E+06 kcal/mol

                OH-        Closure     -0.351612E+06 kcal/mol
                           GaussFluct  -0.351612E+06 kcal/mol

                Total      Closure     -0.668098E+02 kcal/mol
                           GaussFluct  -0.707592E+02 kcal/mol

     OH-        H2O        Closure     -0.424217E+02 kcal/mol
                           GaussFluct  -0.475134E+02 kcal/mol

                K+         Closure     -0.351612E+06 kcal/mol
                           GaussFluct  -0.351612E+06 kcal/mol

                OH-        Closure      0.351561E+06 kcal/mol
                           GaussFluct   0.351561E+06 kcal/mol

                Total      Closure     -0.934347E+02 kcal/mol
                           GaussFluct  -0.986502E+02 kcal/mol

 
     Parallelization info
     --------------------
     sticks:   dense  smooth     PW     G-vecs:    dense   smooth      PW
     Min          40      16      4                16136     4064     568
     Max          41      17      5                16171     4100     615
     Sum        9661    3865   1057              3875677   980529  140539
 

     Title: 
     Cu-vib                                                                     


     bravais-lattice index     =            0
     lattice parameter (alat)  =      14.9832  a.u.
     unit-cell volume          =   14695.9939 (a.u.)^3
     number of atoms/cell      =           38
     number of atomic types    =            3
     number of electrons       =       406.00
     number of Kohn-Sham states=          244
     kinetic-energy cutoff     =      62.4738  Ry
     charge density cutoff     =     624.7385  Ry
     convergence threshold     =      7.3E-12
     mixing beta               =       0.3333
     number of iterations used =           12  plain     mixing
     Exchange-correlation      = VDW-DF2 ( 1  4 13  0 2 0)

     Effective Screening Medium Method
     =================================
     Boundary Conditions: Vacuum-Slab-Vacuum
     total charge in unit cell        =   0.0000
     grid points for fit at edges     =        4 
 

     celldm(1)=  14.983209  celldm(2)=   0.000000  celldm(3)=   0.000000
     celldm(4)=   0.000000  celldm(5)=   0.000000  celldm(6)=   0.000000

     crystal axes: (cart. coord. in units of alat)
               a(1) = (   1.000000   0.000000   0.000000 )  
               a(2) = (   0.500000   0.866025   0.000000 )  
               a(3) = (   0.000000   0.000000   5.044917 )  

     reciprocal axes: (cart. coord. in units 2 pi/alat)
               b(1) = (  1.000000 -0.577351  0.000000 )  
               b(2) = (  0.000000  1.154701  0.000000 )  
               b(3) = (  0.000000  0.000000  0.198219 )  


     PseudoPot. # 1 for Cu read from file:
     /work/gf93/f93007/QE/pseudo/Cu.pbe-dn-kjpaw_psl.1.0.0.UPF
     MD5 check sum: 67c40f9e1593dc2d139023e70404cc2a
     Pseudo is Projector augmented-wave + core cor, Zval = 11.0
     Generated using "atomic" code by A. Dal Corso  v.6.1 svn rev. 13369
     Shape of augmentation charge: PSQ
     Using radial grid of 1199 points,  6 beta functions with: 
                l(1) =   0
                l(2) =   0
                l(3) =   1
                l(4) =   1
                l(5) =   2
                l(6) =   2
     Q(r) pseudized with 0 coefficients 


     PseudoPot. # 2 for  C read from file:
     /work/gf93/f93007/QE/pseudo/C.pbe-n-kjpaw_psl.1.0.0.UPF
     MD5 check sum: 92a742b3ac0ce1af44b5aa3f9352ca21
     Pseudo is Projector augmented-wave + core cor, Zval =  4.0
     Generated using "atomic" code by A. Dal Corso  v.6.1 svn rev. 13369
     Shape of augmentation charge: PSQ
     Using radial grid of 1073 points,  4 beta functions with: 
                l(1) =   0
                l(2) =   0
                l(3) =   1
                l(4) =   1
     Q(r) pseudized with 0 coefficients 


     PseudoPot. # 3 for  O read from file:
     /work/gf93/f93007/QE/pseudo/O.pbe-n-kjpaw_psl.1.0.0.UPF
     MD5 check sum: c61d840054b6bba219e553541e327118
     Pseudo is Projector augmented-wave + core cor, Zval =  6.0
     Generated using "atomic" code by A. Dal Corso  v.6.1 svn rev. 13369
     Shape of augmentation charge: PSQ
     Using radial grid of 1095 points,  4 beta functions with: 
                l(1) =   0
                l(2) =   0
                l(3) =   1
                l(4) =   1
     Q(r) pseudized with 0 coefficients 


     vdW kernel table read from file vdW_kernel_table
     MD5 check sum: 6d69797d2e858e93e031fb7d16d30e50

     atomic species   valence    mass     pseudopotential
        Cu            11.00    63.54600     Cu( 1.00)
        C              4.00    12.01100      C( 1.00)
        O              6.00    15.99900      O( 1.00)

     No symmetry found


                                    s                        frac. trans.

      isym =  1     identity                                     

 cryst.   s( 1) = (     1          0          0      )
                  (     0          1          0      )
                  (     0          0          1      )

 cart.    s( 1) = (  1.0000000  0.0000000  0.0000000 )
                  (  0.0000000  1.0000000  0.0000000 )
                  (  0.0000000  0.0000000  1.0000000 )


   Cartesian axes

     site n.     atom                  positions (alat units)
         1           Cu  tau(   1) = (   0.0000000   0.0000000  -0.8248888  )
         2           Cu  tau(   2) = (   0.3333333   0.0000000  -0.8248888  )
         3           Cu  tau(   3) = (   0.6666667   0.0000000  -0.8248888  )
         4           Cu  tau(   4) = (   0.1666667   0.2886751  -0.8248888  )
         5           Cu  tau(   5) = (   0.5000000   0.2886751  -0.8248888  )
         6           Cu  tau(   6) = (   0.8333333   0.2886751  -0.8248888  )
         7           Cu  tau(   7) = (   0.3333333   0.5773503  -0.8248888  )
         8           Cu  tau(   8) = (   0.6666667   0.5773503  -0.8248888  )
         9           Cu  tau(   9) = (   1.0000000   0.5773503  -0.8248888  )
        10           Cu  tau(  10) = (   0.1679527   0.0969677  -0.5550278  )
        11           Cu  tau(  11) = (   0.5000001   0.0963555  -0.5546924  )
        12           Cu  tau(  12) = (   0.8320475   0.0969677  -0.5550278  )
        13           Cu  tau(  13) = (   0.3334463   0.3848350  -0.5546924  )
        14           Cu  tau(  14) = (   0.6665540   0.3848351  -0.5546924  )
        15           Cu  tau(  15) = (   1.0000000   0.3851225  -0.5554971  )
        16           Cu  tau(  16) = (   0.5000002   0.6720902  -0.5550277  )
        17           Cu  tau(  17) = (   0.8335259   0.6734639  -0.5554970  )
        18           Cu  tau(  18) = (   1.1664742   0.6734639  -0.5554970  )
        19           Cu  tau(  19) = (   0.0000002   0.1919045  -0.2895402  )
        20           Cu  tau(  20) = (   0.3359748   0.1939752  -0.2811846  )
        21           Cu  tau(  21) = (   0.6640256   0.1939752  -0.2811846  )
        22           Cu  tau(  22) = (   0.1667941   0.4810516  -0.2872685  )
        23           Cu  tau(  23) = (   0.5000002   0.4780753  -0.2811846  )
        24           Cu  tau(  24) = (   0.8332061   0.4810517  -0.2872684  )
        25           Cu  tau(  25) = (   0.3338062   0.7700731  -0.2895404  )
        26           Cu  tau(  26) = (   0.6661942   0.7700731  -0.2895403  )
        27           Cu  tau(  27) = (   1.0000001   0.7699472  -0.2872685  )
        28           Cu  tau(  28) = (   0.0000000   0.0000002  -0.0207473  )
        29           Cu  tau(  29) = (   0.3317716  -0.0034666  -0.0198287  )
        30           Cu  tau(  30) = (   0.6682285  -0.0034665  -0.0198288  )
        31           Cu  tau(  31) = (   0.1628835   0.2890560  -0.0198289  )
        32           Cu  tau(  32) = (   0.5000001   0.2886752   0.0000000  )
        33           Cu  tau(  33) = (   0.8371164   0.2890560  -0.0198289  )
        34           Cu  tau(  34) = (   0.3311120   0.5804359  -0.0198289  )
        35           Cu  tau(  35) = (   0.6688881   0.5804359  -0.0198288  )
        36           Cu  tau(  36) = (   1.0000000   0.5773501  -0.0191733  )
        37           C   tau(  37) = (   0.4999994   0.2886747   0.2397149  )
        38           O   tau(  38) = (   0.4999989   0.2886744   0.3835421  )

   Crystallographic axes

     site n.     atom                  positions (cryst. coord.)
         1           Cu  tau(   1) = (  0.0000000  0.0000000 -0.1635089  )
         2           Cu  tau(   2) = (  0.3333333  0.0000000 -0.1635089  )
         3           Cu  tau(   3) = (  0.6666667  0.0000000 -0.1635089  )
         4           Cu  tau(   4) = ( -0.0000001  0.3333335 -0.1635089  )
         5           Cu  tau(   5) = (  0.3333333  0.3333335 -0.1635089  )
         6           Cu  tau(   6) = (  0.6666666  0.3333335 -0.1635089  )
         7           Cu  tau(   7) = ( -0.0000002  0.6666670 -0.1635089  )
         8           Cu  tau(   8) = (  0.3333332  0.6666670 -0.1635089  )
         9           Cu  tau(   9) = (  0.6666665  0.6666670 -0.1635089  )
        10           Cu  tau(  10) = (  0.1119684  0.1119687 -0.1100172  )
        11           Cu  tau(  11) = (  0.4443691  0.1112618 -0.1099508  )
        12           Cu  tau(  12) = (  0.7760631  0.1119687 -0.1100172  )
        13           Cu  tau(  13) = (  0.1112615  0.4443694 -0.1099508  )
        14           Cu  tau(  14) = (  0.4443692  0.4443695 -0.1099507  )
        15           Cu  tau(  15) = (  0.7776494  0.4447013 -0.1101102  )
        16           Cu  tau(  16) = (  0.1119685  0.7760633 -0.1100172  )
        17           Cu  tau(  17) = (  0.4447012  0.7776495 -0.1101102  )
        18           Cu  tau(  18) = (  0.7776494  0.7776495 -0.1101102  )
        19           Cu  tau(  19) = ( -0.1107960  0.2215923 -0.0573925  )
        20           Cu  tau(  20) = (  0.2239831  0.2239834 -0.0557362  )
        21           Cu  tau(  21) = (  0.5520338  0.2239834 -0.0557362  )
        22           Cu  tau(  22) = ( -0.1109413  0.5554709 -0.0569422  )
        23           Cu  tau(  23) = (  0.2239831  0.5520341 -0.0557362  )
        24           Cu  tau(  24) = (  0.5554707  0.5554709 -0.0569421  )
        25           Cu  tau(  25) = ( -0.1107959  0.8892042 -0.0573925  )
        26           Cu  tau(  26) = (  0.2215921  0.8892042 -0.0573925  )
        27           Cu  tau(  27) = (  0.5554707  0.8890589 -0.0569422  )
        28           Cu  tau(  28) = ( -0.0000001  0.0000002 -0.0041125  )
        29           Cu  tau(  29) = (  0.3337730 -0.0040029 -0.0039304  )
        30           Cu  tau(  30) = (  0.6702299 -0.0040028 -0.0039305  )
        31           Cu  tau(  31) = ( -0.0040031  0.3337733 -0.0039305  )
        32           Cu  tau(  32) = (  0.3333333  0.3333336  0.0000000  )
        33           Cu  tau(  33) = (  0.6702298  0.3337733 -0.0039305  )
        34           Cu  tau(  34) = ( -0.0040030  0.6702300 -0.0039305  )
        35           Cu  tau(  35) = (  0.3337731  0.6702300 -0.0039305  )
        36           Cu  tau(  36) = (  0.6666666  0.6666667 -0.0038005  )
        37           C   tau(  37) = (  0.3333329  0.3333330  0.0475161  )
        38           O   tau(  38) = (  0.3333326  0.3333326  0.0760255  )

     number of k points=    34  Marzari-Vanderbilt smearing, width (Ry)=  0.0073
                       cart. coord. in units 2pi/alat
        k(    1) = (   0.0000000   0.0000000   0.0000000), wk =   0.0312500
        k(    2) = (   0.0000000   0.1443376   0.0000000), wk =   0.0625000
        k(    3) = (   0.0000000   0.2886753   0.0000000), wk =   0.0625000
        k(    4) = (   0.0000000   0.4330129   0.0000000), wk =   0.0625000
        k(    5) = (   0.0000000  -0.5773505   0.0000000), wk =   0.0312500
        k(    6) = (   0.1250000  -0.0721688   0.0000000), wk =   0.0625000
        k(    7) = (   0.1250000   0.0721688   0.0000000), wk =   0.0625000
        k(    8) = (   0.1250000   0.2165065   0.0000000), wk =   0.0625000
        k(    9) = (   0.1250000   0.3608441   0.0000000), wk =   0.0625000
        k(   10) = (   0.1250000  -0.6495194   0.0000000), wk =   0.0625000
        k(   11) = (   0.1250000  -0.5051817   0.0000000), wk =   0.0625000
        k(   12) = (   0.1250000  -0.3608441   0.0000000), wk =   0.0625000
        k(   13) = (   0.1250000  -0.2165065   0.0000000), wk =   0.0625000
        k(   14) = (   0.2500000  -0.1443376   0.0000000), wk =   0.0625000
        k(   15) = (   0.2500000   0.0000000   0.0000000), wk =   0.0625000
        k(   16) = (   0.2500000   0.1443376   0.0000000), wk =   0.0625000
        k(   17) = (   0.2500000   0.2886753   0.0000000), wk =   0.0625000
        k(   18) = (   0.2500000  -0.7216882   0.0000000), wk =   0.0625000
        k(   19) = (   0.2500000  -0.5773505   0.0000000), wk =   0.0625000
        k(   20) = (   0.2500000  -0.4330129   0.0000000), wk =   0.0625000
        k(   21) = (   0.2500000  -0.2886753   0.0000000), wk =   0.0625000
        k(   22) = (   0.3750000  -0.2165065   0.0000000), wk =   0.0625000
        k(   23) = (   0.3750000  -0.0721688   0.0000000), wk =   0.0625000
        k(   24) = (   0.3750000   0.0721688   0.0000000), wk =   0.0625000
        k(   25) = (   0.3750000   0.2165065   0.0000000), wk =   0.0625000
        k(   26) = (   0.3750000  -0.7938570   0.0000000), wk =   0.0625000
        k(   27) = (   0.3750000  -0.6495194   0.0000000), wk =   0.0625000
        k(   28) = (   0.3750000  -0.5051817   0.0000000), wk =   0.0625000
        k(   29) = (   0.3750000  -0.3608441   0.0000000), wk =   0.0625000
        k(   30) = (  -0.5000000   0.2886753   0.0000000), wk =   0.0312500
        k(   31) = (  -0.5000000   0.4330129   0.0000000), wk =   0.0625000
        k(   32) = (  -0.5000000   0.5773505   0.0000000), wk =   0.0625000
        k(   33) = (  -0.5000000   0.7216882   0.0000000), wk =   0.0625000
        k(   34) = (  -0.5000000  -0.2886753   0.0000000), wk =   0.0312500

                       cryst. coord.
        k(    1) = (   0.0000000   0.0000000   0.0000000), wk =   0.0312500
        k(    2) = (   0.0000000   0.1250000   0.0000000), wk =   0.0625000
        k(    3) = (   0.0000000   0.2500000   0.0000000), wk =   0.0625000
        k(    4) = (   0.0000000   0.3750000   0.0000000), wk =   0.0625000
        k(    5) = (   0.0000000  -0.5000000   0.0000000), wk =   0.0312500
        k(    6) = (   0.1250000   0.0000000   0.0000000), wk =   0.0625000
        k(    7) = (   0.1250000   0.1250000   0.0000000), wk =   0.0625000
        k(    8) = (   0.1250000   0.2500000   0.0000000), wk =   0.0625000
        k(    9) = (   0.1250000   0.3750000   0.0000000), wk =   0.0625000
        k(   10) = (   0.1250000  -0.5000000   0.0000000), wk =   0.0625000
        k(   11) = (   0.1250000  -0.3750000   0.0000000), wk =   0.0625000
        k(   12) = (   0.1250000  -0.2500000   0.0000000), wk =   0.0625000
        k(   13) = (   0.1250000  -0.1250000   0.0000000), wk =   0.0625000
        k(   14) = (   0.2500000   0.0000000   0.0000000), wk =   0.0625000
        k(   15) = (   0.2500000   0.1250000   0.0000000), wk =   0.0625000
        k(   16) = (   0.2500000   0.2500000   0.0000000), wk =   0.0625000
        k(   17) = (   0.2500000   0.3750000   0.0000000), wk =   0.0625000
        k(   18) = (   0.2500000  -0.5000000   0.0000000), wk =   0.0625000
        k(   19) = (   0.2500000  -0.3750000   0.0000000), wk =   0.0625000
        k(   20) = (   0.2500000  -0.2500000   0.0000000), wk =   0.0625000
        k(   21) = (   0.2500000  -0.1250000   0.0000000), wk =   0.0625000
        k(   22) = (   0.3750000   0.0000000   0.0000000), wk =   0.0625000
        k(   23) = (   0.3750000   0.1250000   0.0000000), wk =   0.0625000
        k(   24) = (   0.3750000   0.2500000   0.0000000), wk =   0.0625000
        k(   25) = (   0.3750000   0.3750000   0.0000000), wk =   0.0625000
        k(   26) = (   0.3750000  -0.5000000   0.0000000), wk =   0.0625000
        k(   27) = (   0.3750000  -0.3750000   0.0000000), wk =   0.0625000
        k(   28) = (   0.3750000  -0.2500000   0.0000000), wk =   0.0625000
        k(   29) = (   0.3750000  -0.1250000   0.0000000), wk =   0.0625000
        k(   30) = (  -0.5000000   0.0000000   0.0000000), wk =   0.0312500
        k(   31) = (  -0.5000000   0.1250000   0.0000000), wk =   0.0625000
        k(   32) = (  -0.5000000   0.2500000   0.0000000), wk =   0.0625000
        k(   33) = (  -0.5000000   0.3750000   0.0000000), wk =   0.0625000
        k(   34) = (  -0.5000000  -0.5000000   0.0000000), wk =   0.0312500

     Dense  grid:  3875677 G-vectors     FFT dimensions: ( 120, 120, 625)

     Smooth grid:   980529 G-vectors     FFT dimensions: (  75,  75, 384)

     Estimated max dynamical RAM per process >     140.99MB

     Estimated total allocated dynamical RAM >   33838.49MB

     Solute:
       # atom     E (kcal/mol)  S (angs)
       1  Cu      1.00000000    3.00000000    given
       2  Cu      1.00000000    3.00000000    given
       3  Cu      1.00000000    3.00000000    given
       4  Cu      1.00000000    3.00000000    given
       5  Cu      1.00000000    3.00000000    given
       6  Cu      1.00000000    3.00000000    given
       7  Cu      1.00000000    3.00000000    given
       8  Cu      1.00000000    3.00000000    given
       9  Cu      1.00000000    3.00000000    given
      10  Cu      1.00000000    3.00000000    given
      11  Cu      1.00000000    3.00000000    given
      12  Cu      1.00000000    3.00000000    given
      13  Cu      1.00000000    3.00000000    given
      14  Cu      1.00000000    3.00000000    given
      15  Cu      1.00000000    3.00000000    given
      16  Cu      1.00000000    3.00000000    given
      17  Cu      1.00000000    3.00000000    given
      18  Cu      1.00000000    3.00000000    given
      19  Cu      1.00000000    3.00000000    given
      20  Cu      1.00000000    3.00000000    given
      21  Cu      1.00000000    3.00000000    given
      22  Cu      1.00000000    3.00000000    given
      23  Cu      1.00000000    3.00000000    given
      24  Cu      1.00000000    3.00000000    given
      25  Cu      1.00000000    3.00000000    given
      26  Cu      1.00000000    3.00000000    given
      27  Cu      1.00000000    3.00000000    given
      28  Cu      1.00000000    3.00000000    given
      29  Cu      1.00000000    3.00000000    given
      30  Cu      1.00000000    3.00000000    given
      31  Cu      1.00000000    3.00000000    given
      32  Cu      1.00000000    3.00000000    given
      33  Cu      1.00000000    3.00000000    given
      34  Cu      1.00000000    3.00000000    given
      35  Cu      1.00000000    3.00000000    given
      36  Cu      1.00000000    3.00000000    given
      37  C       0.07000000    3.55000000    OPLS-AA
      38  O       0.17000000    3.00000000    OPLS-AA

     Wall:
       Density =    0.01000000  bohr^-3
       E       =    0.10000000  kcal/mol
       S       =    4.00000000  angs

     L.J. cutoff radius =       5.0000  S


     Laue-RISM info
     --------------
     closure equation        =           KH
     temperature             =     300.0000  kelvin
     coulomb smearing radius =       2.0000  bohr
     number of solvent sites =            6
     solvent sites           =    O/h2o   H/h2o   L/h2o       K
     solvent sites           =     O/oh    H/oh
     #R-grids in local       =        11250
     #Rz-grids (unit-cell)   =          384
     #Rz-grids (expand-cell) =          720
     #G-grids in local       =         4081
     #Gxy-grids in local     =           17
     #Gxy-shells in local    =           17
     number of iterations    =        10000
     convergence threshold   =      1.0E-06
     convergence level       =       0.8000
     size of MDIIS           =           20
     step of MDIIS           =       0.8000
     solvent cutoff          =     249.8954  Ry
     Custom grid:   980529 G-vectors     FFT dimensions: (  75,  75, 384)

     Boundary Conditions        : Vacuum-Slab-Solvent
     unit-cell (in bohr)        : [ -37.794523  37.794523]
     expand-cell (in bohr)      : [ -37.794523 103.934937]
     solvent of right (in bohr) : [  -8.267552 103.934937]
     buffer  of right (in bohr) : [ -18.109875  -8.267552]
     Gxy = 0 of right (in bohr) : [ -18.109875  82.872365]
     repulsive wall (in bohr)   : [  -Infinity -10.486273]
     reference of potential     : right-hand side
     #grids to fit at edges of unit-cell =    4
     Laue grid:     3865 Gxy-vectors     FFT dimensions: (  75,  75, 720)


     MPI for site:
     number of site groups     =            1
     #procs in a site group    =          240
     this proc in a site group =            0
     the root in a site group  =            0
     this site group           =            0
     inter-site group comm.    =           23
     intra-site group comm.    =            5
     total number of sites     =            6
     starting index of sites   =            1
     ending index of sites     =            6


     MPI for task:
     #procs in a task group    =          240
     this proc in a task group =            0
     the root in a task group  =            0
     task group comm.          =            5


     Initial potential from superposition of free atoms
     Check: negative starting charge=   -0.001648

     starting charge  405.99177, renormalised to  406.00000

     Correlation function is read from file


     negative rho (up, down):  1.648E-03 0.000E+00


     %%%%%%%%%%%%%%%%%%%%%%%%%%%%%%%%%%%%%%%%%%%%%%%%%%%%%%%%%%%%%%%%%%%%%%%%
     %                                                                      %
     % You are using vdW-DF, which was implemented by the Thonhauser group. %
     % Please cite the following two papers that made this development      %
     % possible and the two reviews that describe the various versions:     %
     %                                                                      %
     %   T. Thonhauser et al., PRL 115, 136402 (2015).                      %
     %   T. Thonhauser et al., PRB 76, 125112 (2007).                       %
     %   K. Berland et al., Rep. Prog. Phys. 78, 066501 (2015).             %
     %   D.C. Langreth et al., J. Phys.: Condens. Matter 21, 084203 (2009). %
     %                                                                      %
     %                                                                      %
     % If you are calculating the stress with vdW-DF, please also cite:     %
     %                                                                      %
     %   R. Sabatini et al., J. Phys.: Condens. Matter 24, 424209 (2012).   %
     %                                                                      %
     %%%%%%%%%%%%%%%%%%%%%%%%%%%%%%%%%%%%%%%%%%%%%%%%%%%%%%%%%%%%%%%%%%%%%%%%


     Carrying out vdW-DF run using the following parameters:
     Nqs    =  20  Npoints =  1024  r_max =  100.000
     q_mesh =  0.00001000  0.04494208  0.09755937  0.15916263
               0.23128650  0.31572767  0.41458969  0.53033537
               0.66584808  0.82450364  1.01025438  1.22772762
               1.48234092  1.78043706  2.12944203  2.53805004
               3.01644009  3.57652955  4.23227104  5.00000000


     -----------------------------------------------
     Non-local corr. energy    =      22.28432169 Ry
     -----------------------------------------------


     Laue-RISM Calculation

     convergence threshold    = 6.310E-06
     iter. #     1  RMS(g-h-1)= 5.963E-02  nbox=  0
     iter. #     2  RMS(g-h-1)= 4.590E-02  nbox=  1
     iter. #     3  RMS(g-h-1)= 2.818E-02  nbox=  2
     iter. #     4  RMS(g-h-1)= 1.134E-02  nbox=  3
     iter. #     5  RMS(g-h-1)= 9.714E-03  nbox=  4
     iter. #     6  RMS(g-h-1)= 7.753E-03  nbox=  5
     iter. #     7  RMS(g-h-1)= 6.591E-03  nbox=  6
     iter. #     8  RMS(g-h-1)= 5.979E-03  nbox=  7
     iter. #     9  RMS(g-h-1)= 5.592E-03  nbox=  8
     iter. #    10  RMS(g-h-1)= 5.204E-03  nbox=  9
     iter. #    11  RMS(g-h-1)= 4.793E-03  nbox= 10
     iter. #    12  RMS(g-h-1)= 4.444E-03  nbox= 11
     iter. #    13  RMS(g-h-1)= 4.225E-03  nbox= 12
     iter. #    14  RMS(g-h-1)= 4.033E-03  nbox= 13
     iter. #    15  RMS(g-h-1)= 3.744E-03  nbox= 14
     iter. #    16  RMS(g-h-1)= 3.449E-03  nbox= 15
     iter. #    17  RMS(g-h-1)= 3.155E-03  nbox= 16
     iter. #    18  RMS(g-h-1)= 2.878E-03  nbox= 17
     iter. #    19  RMS(g-h-1)= 2.514E-03  nbox= 18
     iter. #    20  RMS(g-h-1)= 2.219E-03  nbox= 19
     iter. #    21  RMS(g-h-1)= 2.038E-03  nbox= 20
     iter. #    22  RMS(g-h-1)= 1.923E-03  nbox= 20
     iter. #    23  RMS(g-h-1)= 1.785E-03  nbox= 20
     iter. #    24  RMS(g-h-1)= 1.662E-03  nbox= 20
     iter. #    25  RMS(g-h-1)= 1.620E-03  nbox= 20
     iter. #    26  RMS(g-h-1)= 1.539E-03  nbox= 20
     iter. #    27  RMS(g-h-1)= 1.480E-03  nbox= 20
     iter. #    28  RMS(g-h-1)= 1.419E-03  nbox= 20
     iter. #    29  RMS(g-h-1)= 1.391E-03  nbox= 20
     iter. #    30  RMS(g-h-1)= 1.339E-03  nbox= 20
     iter. #    31  RMS(g-h-1)= 1.270E-03  nbox= 20
     iter. #    32  RMS(g-h-1)= 1.243E-03  nbox= 20
     iter. #    33  RMS(g-h-1)= 1.215E-03  nbox= 20
     iter. #    34  RMS(g-h-1)= 1.163E-03  nbox= 20
     iter. #    35  RMS(g-h-1)= 1.110E-03  nbox= 20
     iter. #    36  RMS(g-h-1)= 1.071E-03  nbox= 20
     iter. #    37  RMS(g-h-1)= 1.060E-03  nbox= 20
     iter. #    38  RMS(g-h-1)= 1.000E-03  nbox= 20
     iter. #    39  RMS(g-h-1)= 9.758E-04  nbox= 20
     iter. #    40  RMS(g-h-1)= 9.555E-04  nbox= 20
     iter. #    41  RMS(g-h-1)= 9.462E-04  nbox= 20
     iter. #    42  RMS(g-h-1)= 9.042E-04  nbox= 20
     iter. #    43  RMS(g-h-1)= 8.984E-04  nbox= 20
     iter. #    44  RMS(g-h-1)= 8.779E-04  nbox= 20
     iter. #    45  RMS(g-h-1)= 8.608E-04  nbox= 20
     iter. #    46  RMS(g-h-1)= 8.535E-04  nbox= 20
     iter. #    47  RMS(g-h-1)= 8.473E-04  nbox= 20
     iter. #    48  RMS(g-h-1)= 8.388E-04  nbox= 20
     iter. #    49  RMS(g-h-1)= 8.344E-04  nbox= 20
     iter. #    50  RMS(g-h-1)= 8.157E-04  nbox= 20
     iter. #    51  RMS(g-h-1)= 8.079E-04  nbox= 20
     iter. #    52  RMS(g-h-1)= 7.966E-04  nbox= 20
     iter. #    53  RMS(g-h-1)= 7.822E-04  nbox= 20
     iter. #    54  RMS(g-h-1)= 7.640E-04  nbox= 20
     iter. #    55  RMS(g-h-1)= 7.595E-04  nbox=  2
     iter. #    56  RMS(g-h-1)= 7.469E-04  nbox=  3
     iter. #    57  RMS(g-h-1)= 7.335E-04  nbox=  4
     iter. #    58  RMS(g-h-1)= 7.215E-04  nbox=  5
     iter. #    59  RMS(g-h-1)= 7.254E-04  nbox=  6
     iter. #    60  RMS(g-h-1)= 7.028E-04  nbox=  7
     iter. #    61  RMS(g-h-1)= 6.913E-04  nbox=  8
     iter. #    62  RMS(g-h-1)= 6.774E-04  nbox=  9
     iter. #    63  RMS(g-h-1)= 6.654E-04  nbox= 10
     iter. #    64  RMS(g-h-1)= 6.518E-04  nbox= 11
     iter. #    65  RMS(g-h-1)= 6.490E-04  nbox= 12
     iter. #    66  RMS(g-h-1)= 6.326E-04  nbox= 13
     iter. #    67  RMS(g-h-1)= 6.234E-04  nbox= 14
     iter. #    68  RMS(g-h-1)= 6.096E-04  nbox= 15
     iter. #    69  RMS(g-h-1)= 5.929E-04  nbox= 16
     iter. #    70  RMS(g-h-1)= 5.978E-04  nbox= 17
     iter. #    71  RMS(g-h-1)= 6.000E-04  nbox=  2
     iter. #    72  RMS(g-h-1)= 5.827E-04  nbox=  3
     iter. #    73  RMS(g-h-1)= 5.748E-04  nbox=  4
     iter. #    74  RMS(g-h-1)= 5.655E-04  nbox=  5
     iter. #    75  RMS(g-h-1)= 5.700E-04  nbox=  6
     iter. #    76  RMS(g-h-1)= 5.456E-04  nbox=  7
     iter. #    77  RMS(g-h-1)= 5.413E-04  nbox=  8
     iter. #    78  RMS(g-h-1)= 5.268E-04  nbox=  9
     iter. #    79  RMS(g-h-1)= 5.133E-04  nbox= 10
     iter. #    80  RMS(g-h-1)= 5.053E-04  nbox= 11
     iter. #    81  RMS(g-h-1)= 4.907E-04  nbox= 12
     iter. #    82  RMS(g-h-1)= 4.816E-04  nbox= 13
     iter. #    83  RMS(g-h-1)= 4.655E-04  nbox= 14
     iter. #    84  RMS(g-h-1)= 4.530E-04  nbox= 15
     iter. #    85  RMS(g-h-1)= 4.465E-04  nbox= 16
     iter. #    86  RMS(g-h-1)= 4.361E-04  nbox= 17
     iter. #    87  RMS(g-h-1)= 4.336E-04  nbox=  2
     iter. #    88  RMS(g-h-1)= 4.247E-04  nbox=  3
     iter. #    89  RMS(g-h-1)= 4.176E-04  nbox=  4
     iter. #    90  RMS(g-h-1)= 4.150E-04  nbox=  5
     iter. #    91  RMS(g-h-1)= 4.081E-04  nbox=  6
     iter. #    92  RMS(g-h-1)= 4.014E-04  nbox=  7
     iter. #    93  RMS(g-h-1)= 3.939E-04  nbox=  8
     iter. #    94  RMS(g-h-1)= 3.843E-04  nbox=  9
     iter. #    95  RMS(g-h-1)= 3.803E-04  nbox= 10
     iter. #    96  RMS(g-h-1)= 3.697E-04  nbox= 11
     iter. #    97  RMS(g-h-1)= 3.630E-04  nbox= 12
     iter. #    98  RMS(g-h-1)= 3.555E-04  nbox= 13
     iter. #    99  RMS(g-h-1)= 3.493E-04  nbox= 14
     iter. #   100  RMS(g-h-1)= 3.466E-04  nbox= 15
     iter. #   101  RMS(g-h-1)= 3.405E-04  nbox= 16
     iter. #   102  RMS(g-h-1)= 3.353E-04  nbox= 17
     iter. #   103  RMS(g-h-1)= 3.338E-04  nbox=  2
     iter. #   104  RMS(g-h-1)= 3.273E-04  nbox=  3
     iter. #   105  RMS(g-h-1)= 3.202E-04  nbox=  4
     iter. #   106  RMS(g-h-1)= 3.160E-04  nbox=  5
     iter. #   107  RMS(g-h-1)= 3.117E-04  nbox=  6
     iter. #   108  RMS(g-h-1)= 3.082E-04  nbox=  7
     iter. #   109  RMS(g-h-1)= 3.026E-04  nbox=  8
     iter. #   110  RMS(g-h-1)= 2.977E-04  nbox=  9
     iter. #   111  RMS(g-h-1)= 2.926E-04  nbox= 10
     iter. #   112  RMS(g-h-1)= 2.904E-04  nbox= 11
     iter. #   113  RMS(g-h-1)= 2.865E-04  nbox= 12
     iter. #   114  RMS(g-h-1)= 2.827E-04  nbox= 13
     iter. #   115  RMS(g-h-1)= 2.791E-04  nbox= 14
     iter. #   116  RMS(g-h-1)= 2.756E-04  nbox= 15
     iter. #   117  RMS(g-h-1)= 2.747E-04  nbox= 16
     iter. #   118  RMS(g-h-1)= 2.710E-04  nbox= 17
     iter. #   119  RMS(g-h-1)= 2.707E-04  nbox=  2
     iter. #   120  RMS(g-h-1)= 2.676E-04  nbox=  3
     iter. #   121  RMS(g-h-1)= 2.654E-04  nbox=  4
     iter. #   122  RMS(g-h-1)= 2.634E-04  nbox=  5
     iter. #   123  RMS(g-h-1)= 2.626E-04  nbox=  6
     iter. #   124  RMS(g-h-1)= 2.606E-04  nbox=  7
     iter. #   125  RMS(g-h-1)= 2.589E-04  nbox=  8
     iter. #   126  RMS(g-h-1)= 2.570E-04  nbox=  9
     iter. #   127  RMS(g-h-1)= 2.551E-04  nbox= 10
     iter. #   128  RMS(g-h-1)= 2.534E-04  nbox= 11
     iter. #   129  RMS(g-h-1)= 2.523E-04  nbox= 12
     iter. #   130  RMS(g-h-1)= 2.506E-04  nbox= 13
     iter. #   131  RMS(g-h-1)= 2.485E-04  nbox= 14
     iter. #   132  RMS(g-h-1)= 2.461E-04  nbox= 15
     iter. #   133  RMS(g-h-1)= 2.442E-04  nbox= 16
     iter. #   134  RMS(g-h-1)= 2.430E-04  nbox= 17
     iter. #   135  RMS(g-h-1)= 2.423E-04  nbox=  2
     iter. #   136  RMS(g-h-1)= 2.411E-04  nbox=  3
     iter. #   137  RMS(g-h-1)= 2.398E-04  nbox=  4
     iter. #   138  RMS(g-h-1)= 2.381E-04  nbox=  5
     iter. #   139  RMS(g-h-1)= 2.382E-04  nbox=  6
     iter. #   140  RMS(g-h-1)= 2.353E-04  nbox=  7
     iter. #   141  RMS(g-h-1)= 2.345E-04  nbox=  8
     iter. #   142  RMS(g-h-1)= 2.321E-04  nbox=  9
     iter. #   143  RMS(g-h-1)= 2.297E-04  nbox= 10
     iter. #   144  RMS(g-h-1)= 2.278E-04  nbox= 11
     iter. #   145  RMS(g-h-1)= 2.259E-04  nbox= 12
     iter. #   146  RMS(g-h-1)= 2.268E-04  nbox= 13
     iter. #   147  RMS(g-h-1)= 2.238E-04  nbox= 14
     iter. #   148  RMS(g-h-1)= 2.227E-04  nbox= 15
     iter. #   149  RMS(g-h-1)= 2.211E-04  nbox= 16
     iter. #   150  RMS(g-h-1)= 2.207E-04  nbox= 17
     iter. #   151  RMS(g-h-1)= 2.203E-04  nbox=  2
     iter. #   152  RMS(g-h-1)= 2.192E-04  nbox=  3
     iter. #   153  RMS(g-h-1)= 2.181E-04  nbox=  4
     iter. #   154  RMS(g-h-1)= 2.167E-04  nbox=  5
     iter. #   155  RMS(g-h-1)= 2.150E-04  nbox=  6
     iter. #   156  RMS(g-h-1)= 2.135E-04  nbox=  7
     iter. #   157  RMS(g-h-1)= 2.127E-04  nbox=  8
     iter. #   158  RMS(g-h-1)= 2.111E-04  nbox=  9
     iter. #   159  RMS(g-h-1)= 2.095E-04  nbox= 10
     iter. #   160  RMS(g-h-1)= 2.079E-04  nbox= 11
     iter. #   161  RMS(g-h-1)= 2.068E-04  nbox= 12
     iter. #   162  RMS(g-h-1)= 2.053E-04  nbox= 13
     iter. #   163  RMS(g-h-1)= 2.052E-04  nbox= 14
     iter. #   164  RMS(g-h-1)= 2.038E-04  nbox= 15
     iter. #   165  RMS(g-h-1)= 2.028E-04  nbox= 16
     iter. #   166  RMS(g-h-1)= 2.021E-04  nbox= 17
     iter. #   167  RMS(g-h-1)= 2.016E-04  nbox=  2
     iter. #   168  RMS(g-h-1)= 2.008E-04  nbox=  3
     iter. #   169  RMS(g-h-1)= 1.997E-04  nbox=  4
     iter. #   170  RMS(g-h-1)= 1.986E-04  nbox=  5
     iter. #   171  RMS(g-h-1)= 1.972E-04  nbox=  6
     iter. #   172  RMS(g-h-1)= 1.961E-04  nbox=  7
     iter. #   173  RMS(g-h-1)= 1.950E-04  nbox=  8
     iter. #   174  RMS(g-h-1)= 1.930E-04  nbox=  9
     iter. #   175  RMS(g-h-1)= 1.911E-04  nbox= 10
     iter. #   176  RMS(g-h-1)= 1.890E-04  nbox= 11
     iter. #   177  RMS(g-h-1)= 1.872E-04  nbox= 12
     iter. #   178  RMS(g-h-1)= 1.886E-04  nbox= 13
     iter. #   179  RMS(g-h-1)= 1.853E-04  nbox= 14
     iter. #   180  RMS(g-h-1)= 1.844E-04  nbox= 15
     iter. #   181  RMS(g-h-1)= 1.831E-04  nbox= 16
     iter. #   182  RMS(g-h-1)= 1.820E-04  nbox= 17
     iter. #   183  RMS(g-h-1)= 1.815E-04  nbox=  2
     iter. #   184  RMS(g-h-1)= 1.803E-04  nbox=  3
     iter. #   185  RMS(g-h-1)= 1.787E-04  nbox=  4
     iter. #   186  RMS(g-h-1)= 1.769E-04  nbox=  5
     iter. #   187  RMS(g-h-1)= 1.753E-04  nbox=  6
     iter. #   188  RMS(g-h-1)= 1.740E-04  nbox=  7
     iter. #   189  RMS(g-h-1)= 1.723E-04  nbox=  8
     iter. #   190  RMS(g-h-1)= 1.698E-04  nbox=  9
     iter. #   191  RMS(g-h-1)= 1.674E-04  nbox= 10
     iter. #   192  RMS(g-h-1)= 1.651E-04  nbox= 11
     iter. #   193  RMS(g-h-1)= 1.632E-04  nbox= 12
     iter. #   194  RMS(g-h-1)= 1.614E-04  nbox= 13
     iter. #   195  RMS(g-h-1)= 1.606E-04  nbox= 14
     iter. #   196  RMS(g-h-1)= 1.587E-04  nbox= 15
     iter. #   197  RMS(g-h-1)= 1.571E-04  nbox= 16
     iter. #   198  RMS(g-h-1)= 1.554E-04  nbox= 17
     iter. #   199  RMS(g-h-1)= 1.552E-04  nbox=  2
     iter. #   200  RMS(g-h-1)= 1.532E-04  nbox=  3
     iter. #   201  RMS(g-h-1)= 1.515E-04  nbox=  4
     iter. #   202  RMS(g-h-1)= 1.498E-04  nbox=  5
     iter. #   203  RMS(g-h-1)= 1.486E-04  nbox=  6
     iter. #   204  RMS(g-h-1)= 1.468E-04  nbox=  7
     iter. #   205  RMS(g-h-1)= 1.446E-04  nbox=  8
     iter. #   206  RMS(g-h-1)= 1.424E-04  nbox=  9
     iter. #   207  RMS(g-h-1)= 1.405E-04  nbox= 10
     iter. #   208  RMS(g-h-1)= 1.385E-04  nbox= 11
     iter. #   209  RMS(g-h-1)= 1.383E-04  nbox= 12
     iter. #   210  RMS(g-h-1)= 1.364E-04  nbox= 13
     iter. #   211  RMS(g-h-1)= 1.348E-04  nbox= 14
     iter. #   212  RMS(g-h-1)= 1.337E-04  nbox= 15
     iter. #   213  RMS(g-h-1)= 1.321E-04  nbox= 16
     iter. #   214  RMS(g-h-1)= 1.326E-04  nbox= 17
     iter. #   215  RMS(g-h-1)= 1.331E-04  nbox=  2
     iter. #   216  RMS(g-h-1)= 1.309E-04  nbox=  3
     iter. #   217  RMS(g-h-1)= 1.298E-04  nbox=  4
     iter. #   218  RMS(g-h-1)= 1.285E-04  nbox=  5
     iter. #   219  RMS(g-h-1)= 1.275E-04  nbox=  6
     iter. #   220  RMS(g-h-1)= 1.269E-04  nbox=  7
     iter. #   221  RMS(g-h-1)= 1.260E-04  nbox=  8
     iter. #   222  RMS(g-h-1)= 1.249E-04  nbox=  9
     iter. #   223  RMS(g-h-1)= 1.237E-04  nbox= 10
     iter. #   224  RMS(g-h-1)= 1.227E-04  nbox= 11
     iter. #   225  RMS(g-h-1)= 1.216E-04  nbox= 12
     iter. #   226  RMS(g-h-1)= 1.204E-04  nbox= 13
     iter. #   227  RMS(g-h-1)= 1.202E-04  nbox= 14
     iter. #   228  RMS(g-h-1)= 1.189E-04  nbox= 15
     iter. #   229  RMS(g-h-1)= 1.179E-04  nbox= 16
     iter. #   230  RMS(g-h-1)= 1.169E-04  nbox= 17
     iter. #   231  RMS(g-h-1)= 1.167E-04  nbox=  2
     iter. #   232  RMS(g-h-1)= 1.157E-04  nbox=  3
     iter. #   233  RMS(g-h-1)= 1.149E-04  nbox=  4
     iter. #   234  RMS(g-h-1)= 1.142E-04  nbox=  5
     iter. #   235  RMS(g-h-1)= 1.137E-04  nbox=  6
     iter. #   236  RMS(g-h-1)= 1.130E-04  nbox=  7
     iter. #   237  RMS(g-h-1)= 1.120E-04  nbox=  8
     iter. #   238  RMS(g-h-1)= 1.108E-04  nbox=  9
     iter. #   239  RMS(g-h-1)= 1.098E-04  nbox= 10
     iter. #   240  RMS(g-h-1)= 1.086E-04  nbox= 11
     iter. #   241  RMS(g-h-1)= 1.075E-04  nbox= 12
     iter. #   242  RMS(g-h-1)= 1.070E-04  nbox= 13
     iter. #   243  RMS(g-h-1)= 1.059E-04  nbox= 14
     iter. #   244  RMS(g-h-1)= 1.049E-04  nbox= 15
     iter. #   245  RMS(g-h-1)= 1.038E-04  nbox= 16
     iter. #   246  RMS(g-h-1)= 1.027E-04  nbox= 17
     iter. #   247  RMS(g-h-1)= 1.026E-04  nbox=  2
     iter. #   248  RMS(g-h-1)= 1.013E-04  nbox=  3
     iter. #   249  RMS(g-h-1)= 1.004E-04  nbox=  4
     iter. #   250  RMS(g-h-1)= 9.963E-05  nbox=  5
     iter. #   251  RMS(g-h-1)= 9.886E-05  nbox=  6
     iter. #   252  RMS(g-h-1)= 9.780E-05  nbox=  7
     iter. #   253  RMS(g-h-1)= 9.645E-05  nbox=  8
     iter. #   254  RMS(g-h-1)= 9.535E-05  nbox=  9
     iter. #   255  RMS(g-h-1)= 9.409E-05  nbox= 10
     iter. #   256  RMS(g-h-1)= 9.311E-05  nbox= 11
     iter. #   257  RMS(g-h-1)= 9.248E-05  nbox= 12
     iter. #   258  RMS(g-h-1)= 9.136E-05  nbox= 13
     iter. #   259  RMS(g-h-1)= 9.032E-05  nbox= 14
     iter. #   260  RMS(g-h-1)= 8.918E-05  nbox= 15
     iter. #   261  RMS(g-h-1)= 8.846E-05  nbox= 16
     iter. #   262  RMS(g-h-1)= 8.741E-05  nbox= 17
     iter. #   263  RMS(g-h-1)= 8.701E-05  nbox=  2
     iter. #   264  RMS(g-h-1)= 8.572E-05  nbox=  3
     iter. #   265  RMS(g-h-1)= 8.450E-05  nbox=  4
     iter. #   266  RMS(g-h-1)= 8.346E-05  nbox=  5
     iter. #   267  RMS(g-h-1)= 8.238E-05  nbox=  6
     iter. #   268  RMS(g-h-1)= 8.171E-05  nbox=  7
     iter. #   269  RMS(g-h-1)= 8.043E-05  nbox=  8
     iter. #   270  RMS(g-h-1)= 7.950E-05  nbox=  9
     iter. #   271  RMS(g-h-1)= 7.860E-05  nbox= 10
     iter. #   272  RMS(g-h-1)= 7.791E-05  nbox= 11
     iter. #   273  RMS(g-h-1)= 7.783E-05  nbox= 12
     iter. #   274  RMS(g-h-1)= 7.696E-05  nbox= 13
     iter. #   275  RMS(g-h-1)= 7.642E-05  nbox= 14
     iter. #   276  RMS(g-h-1)= 7.575E-05  nbox= 15
     iter. #   277  RMS(g-h-1)= 7.498E-05  nbox= 16
     iter. #   278  RMS(g-h-1)= 7.519E-05  nbox= 17
     iter. #   279  RMS(g-h-1)= 7.522E-05  nbox=  2
     iter. #   280  RMS(g-h-1)= 7.404E-05  nbox=  3
     iter. #   281  RMS(g-h-1)= 7.331E-05  nbox=  4
     iter. #   282  RMS(g-h-1)= 7.249E-05  nbox=  5
     iter. #   283  RMS(g-h-1)= 7.166E-05  nbox=  6
     iter. #   284  RMS(g-h-1)= 7.097E-05  nbox=  7
     iter. #   285  RMS(g-h-1)= 7.059E-05  nbox=  8
     iter. #   286  RMS(g-h-1)= 6.987E-05  nbox=  9
     iter. #   287  RMS(g-h-1)= 6.935E-05  nbox= 10
     iter. #   288  RMS(g-h-1)= 6.865E-05  nbox= 11
     iter. #   289  RMS(g-h-1)= 6.861E-05  nbox= 12
     iter. #   290  RMS(g-h-1)= 6.736E-05  nbox= 13
     iter. #   291  RMS(g-h-1)= 6.732E-05  nbox= 14
     iter. #   292  RMS(g-h-1)= 6.647E-05  nbox= 15
     iter. #   293  RMS(g-h-1)= 6.573E-05  nbox= 16
     iter. #   294  RMS(g-h-1)= 6.503E-05  nbox= 17
     iter. #   295  RMS(g-h-1)= 6.496E-05  nbox=  2
     iter. #   296  RMS(g-h-1)= 6.426E-05  nbox=  3
     iter. #   297  RMS(g-h-1)= 6.381E-05  nbox=  4
     iter. #   298  RMS(g-h-1)= 6.340E-05  nbox=  5
     iter. #   299  RMS(g-h-1)= 6.316E-05  nbox=  6
     iter. #   300  RMS(g-h-1)= 6.288E-05  nbox=  7
     iter. #   301  RMS(g-h-1)= 6.259E-05  nbox=  8
     iter. #   302  RMS(g-h-1)= 6.227E-05  nbox=  9
     iter. #   303  RMS(g-h-1)= 6.195E-05  nbox= 10
     iter. #   304  RMS(g-h-1)= 6.164E-05  nbox= 11
     iter. #   305  RMS(g-h-1)= 6.130E-05  nbox= 12
     iter. #   306  RMS(g-h-1)= 6.106E-05  nbox= 13
     iter. #   307  RMS(g-h-1)= 6.085E-05  nbox= 14
     iter. #   308  RMS(g-h-1)= 6.050E-05  nbox= 15
     iter. #   309  RMS(g-h-1)= 6.017E-05  nbox= 16
     iter. #   310  RMS(g-h-1)= 5.980E-05  nbox= 17
     iter. #   311  RMS(g-h-1)= 5.978E-05  nbox=  2
     iter. #   312  RMS(g-h-1)= 5.942E-05  nbox=  3
     iter. #   313  RMS(g-h-1)= 5.904E-05  nbox=  4
     iter. #   314  RMS(g-h-1)= 5.906E-05  nbox=  5
     iter. #   315  RMS(g-h-1)= 5.846E-05  nbox=  6
     iter. #   316  RMS(g-h-1)= 5.850E-05  nbox=  7
     iter. #   317  RMS(g-h-1)= 5.824E-05  nbox=  8
     iter. #   318  RMS(g-h-1)= 5.818E-05  nbox=  9
     iter. #   319  RMS(g-h-1)= 5.782E-05  nbox= 10
     iter. #   320  RMS(g-h-1)= 5.792E-05  nbox= 11
     iter. #   321  RMS(g-h-1)= 5.753E-05  nbox= 12
     iter. #   322  RMS(g-h-1)= 5.737E-05  nbox= 13
     iter. #   323  RMS(g-h-1)= 5.713E-05  nbox= 14
     iter. #   324  RMS(g-h-1)= 5.693E-05  nbox= 15
     iter. #   325  RMS(g-h-1)= 5.670E-05  nbox= 16
     iter. #   326  RMS(g-h-1)= 5.665E-05  nbox= 17
     iter. #   327  RMS(g-h-1)= 5.658E-05  nbox=  2
     iter. #   328  RMS(g-h-1)= 5.627E-05  nbox=  3
     iter. #   329  RMS(g-h-1)= 5.600E-05  nbox=  4
     iter. #   330  RMS(g-h-1)= 5.574E-05  nbox=  5
     iter. #   331  RMS(g-h-1)= 5.550E-05  nbox=  6
     iter. #   332  RMS(g-h-1)= 5.524E-05  nbox=  7
     iter. #   333  RMS(g-h-1)= 5.519E-05  nbox=  8
     iter. #   334  RMS(g-h-1)= 5.495E-05  nbox=  9
     iter. #   335  RMS(g-h-1)= 5.474E-05  nbox= 10
     iter. #   336  RMS(g-h-1)= 5.453E-05  nbox= 11
     iter. #   337  RMS(g-h-1)= 5.437E-05  nbox= 12
     iter. #   338  RMS(g-h-1)= 5.414E-05  nbox= 13
     iter. #   339  RMS(g-h-1)= 5.473E-05  nbox= 14
     iter. #   340  RMS(g-h-1)= 5.377E-05  nbox= 15
     iter. #   341  RMS(g-h-1)= 5.372E-05  nbox= 16
     iter. #   342  RMS(g-h-1)= 5.348E-05  nbox= 17
     iter. #   343  RMS(g-h-1)= 5.341E-05  nbox=  2
     iter. #   344  RMS(g-h-1)= 5.315E-05  nbox=  3
     iter. #   345  RMS(g-h-1)= 5.293E-05  nbox=  4
     iter. #   346  RMS(g-h-1)= 5.274E-05  nbox=  5
     iter. #   347  RMS(g-h-1)= 5.259E-05  nbox=  6
     iter. #   348  RMS(g-h-1)= 5.249E-05  nbox=  7
     iter. #   349  RMS(g-h-1)= 5.227E-05  nbox=  8
     iter. #   350  RMS(g-h-1)= 5.207E-05  nbox=  9
     iter. #   351  RMS(g-h-1)= 5.187E-05  nbox= 10
     iter. #   352  RMS(g-h-1)= 5.169E-05  nbox= 11
     iter. #   353  RMS(g-h-1)= 5.146E-05  nbox= 12
     iter. #   354  RMS(g-h-1)= 5.130E-05  nbox= 13
     iter. #   355  RMS(g-h-1)= 5.115E-05  nbox= 14
     iter. #   356  RMS(g-h-1)= 5.093E-05  nbox= 15
     iter. #   357  RMS(g-h-1)= 5.064E-05  nbox= 16
     iter. #   358  RMS(g-h-1)= 5.039E-05  nbox= 17
     iter. #   359  RMS(g-h-1)= 5.035E-05  nbox=  2
     iter. #   360  RMS(g-h-1)= 5.004E-05  nbox=  3
     iter. #   361  RMS(g-h-1)= 4.980E-05  nbox=  4
     iter. #   362  RMS(g-h-1)= 4.954E-05  nbox=  5
     iter. #   363  RMS(g-h-1)= 4.946E-05  nbox=  6
     iter. #   364  RMS(g-h-1)= 4.926E-05  nbox=  7
     iter. #   365  RMS(g-h-1)= 4.906E-05  nbox=  8
     iter. #   366  RMS(g-h-1)= 4.885E-05  nbox=  9
     iter. #   367  RMS(g-h-1)= 4.867E-05  nbox= 10
     iter. #   368  RMS(g-h-1)= 4.850E-05  nbox= 11
     iter. #   369  RMS(g-h-1)= 4.839E-05  nbox= 12
     iter. #   370  RMS(g-h-1)= 4.825E-05  nbox= 13
     iter. #   371  RMS(g-h-1)= 4.813E-05  nbox= 14
     iter. #   372  RMS(g-h-1)= 4.796E-05  nbox= 15
     iter. #   373  RMS(g-h-1)= 4.781E-05  nbox= 16
     iter. #   374  RMS(g-h-1)= 4.764E-05  nbox= 17
     iter. #   375  RMS(g-h-1)= 4.761E-05  nbox=  2
     iter. #   376  RMS(g-h-1)= 4.743E-05  nbox=  3
     iter. #   377  RMS(g-h-1)= 4.726E-05  nbox=  4
     iter. #   378  RMS(g-h-1)= 4.712E-05  nbox=  5
     iter. #   379  RMS(g-h-1)= 4.703E-05  nbox=  6
     iter. #   380  RMS(g-h-1)= 4.691E-05  nbox=  7
     iter. #   381  RMS(g-h-1)= 4.680E-05  nbox=  8
     iter. #   382  RMS(g-h-1)= 4.666E-05  nbox=  9
     iter. #   383  RMS(g-h-1)= 4.660E-05  nbox= 10
     iter. #   384  RMS(g-h-1)= 4.654E-05  nbox= 11
     iter. #   385  RMS(g-h-1)= 4.664E-05  nbox= 12
     iter. #   386  RMS(g-h-1)= 4.622E-05  nbox= 13
     iter. #   387  RMS(g-h-1)= 4.615E-05  nbox= 14
     iter. #   388  RMS(g-h-1)= 4.602E-05  nbox= 15
     iter. #   389  RMS(g-h-1)= 4.591E-05  nbox= 16
     iter. #   390  RMS(g-h-1)= 4.578E-05  nbox= 17
     iter. #   391  RMS(g-h-1)= 4.572E-05  nbox=  2
     iter. #   392  RMS(g-h-1)= 4.554E-05  nbox=  3
     iter. #   393  RMS(g-h-1)= 4.535E-05  nbox=  4
     iter. #   394  RMS(g-h-1)= 4.513E-05  nbox=  5
     iter. #   395  RMS(g-h-1)= 4.494E-05  nbox=  6
     iter. #   396  RMS(g-h-1)= 4.480E-05  nbox=  7
     iter. #   397  RMS(g-h-1)= 4.463E-05  nbox=  8
     iter. #   398  RMS(g-h-1)= 4.445E-05  nbox=  9
     iter. #   399  RMS(g-h-1)= 4.428E-05  nbox= 10
     iter. #   400  RMS(g-h-1)= 4.413E-05  nbox= 11
     iter. #   401  RMS(g-h-1)= 4.398E-05  nbox= 12
     iter. #   402  RMS(g-h-1)= 4.384E-05  nbox= 13
     iter. #   403  RMS(g-h-1)= 4.374E-05  nbox= 14
     iter. #   404  RMS(g-h-1)= 4.364E-05  nbox= 15
     iter. #   405  RMS(g-h-1)= 4.353E-05  nbox= 16
     iter. #   406  RMS(g-h-1)= 4.340E-05  nbox= 17
     iter. #   407  RMS(g-h-1)= 4.339E-05  nbox=  2
     iter. #   408  RMS(g-h-1)= 4.325E-05  nbox=  3
     iter. #   409  RMS(g-h-1)= 4.313E-05  nbox=  4
     iter. #   410  RMS(g-h-1)= 4.301E-05  nbox=  5
     iter. #   411  RMS(g-h-1)= 4.291E-05  nbox=  6
     iter. #   412  RMS(g-h-1)= 4.282E-05  nbox=  7
     iter. #   413  RMS(g-h-1)= 4.269E-05  nbox=  8
     iter. #   414  RMS(g-h-1)= 4.256E-05  nbox=  9
     iter. #   415  RMS(g-h-1)= 4.245E-05  nbox= 10
     iter. #   416  RMS(g-h-1)= 4.238E-05  nbox= 11
     iter. #   417  RMS(g-h-1)= 4.231E-05  nbox= 12
     iter. #   418  RMS(g-h-1)= 4.223E-05  nbox= 13
     iter. #   419  RMS(g-h-1)= 4.215E-05  nbox= 14
     iter. #   420  RMS(g-h-1)= 4.205E-05  nbox= 15
     iter. #   421  RMS(g-h-1)= 4.197E-05  nbox= 16
     iter. #   422  RMS(g-h-1)= 4.193E-05  nbox= 17
     iter. #   423  RMS(g-h-1)= 4.190E-05  nbox=  2
     iter. #   424  RMS(g-h-1)= 4.183E-05  nbox=  3
     iter. #   425  RMS(g-h-1)= 4.173E-05  nbox=  4
     iter. #   426  RMS(g-h-1)= 4.164E-05  nbox=  5
     iter. #   427  RMS(g-h-1)= 4.157E-05  nbox=  6
     iter. #   428  RMS(g-h-1)= 4.149E-05  nbox=  7
     iter. #   429  RMS(g-h-1)= 4.143E-05  nbox=  8
     iter. #   430  RMS(g-h-1)= 4.137E-05  nbox=  9
     iter. #   431  RMS(g-h-1)= 4.129E-05  nbox= 10
     iter. #   432  RMS(g-h-1)= 4.120E-05  nbox= 11
     iter. #   433  RMS(g-h-1)= 4.110E-05  nbox= 12
     iter. #   434  RMS(g-h-1)= 4.098E-05  nbox= 13
     iter. #   435  RMS(g-h-1)= 4.085E-05  nbox= 14
     iter. #   436  RMS(g-h-1)= 4.075E-05  nbox= 15
     iter. #   437  RMS(g-h-1)= 4.065E-05  nbox= 16
     iter. #   438  RMS(g-h-1)= 4.053E-05  nbox= 17
     iter. #   439  RMS(g-h-1)= 4.050E-05  nbox=  2
     iter. #   440  RMS(g-h-1)= 4.036E-05  nbox=  3
     iter. #   441  RMS(g-h-1)= 4.024E-05  nbox=  4
     iter. #   442  RMS(g-h-1)= 4.010E-05  nbox=  5
     iter. #   443  RMS(g-h-1)= 4.013E-05  nbox=  6
     iter. #   444  RMS(g-h-1)= 3.993E-05  nbox=  7
     iter. #   445  RMS(g-h-1)= 3.979E-05  nbox=  8
     iter. #   446  RMS(g-h-1)= 3.961E-05  nbox=  9
     iter. #   447  RMS(g-h-1)= 3.946E-05  nbox= 10
     iter. #   448  RMS(g-h-1)= 3.935E-05  nbox= 11
     iter. #   449  RMS(g-h-1)= 3.921E-05  nbox= 12
     iter. #   450  RMS(g-h-1)= 3.907E-05  nbox= 13
     iter. #   451  RMS(g-h-1)= 3.891E-05  nbox= 14
     iter. #   452  RMS(g-h-1)= 3.877E-05  nbox= 15
     iter. #   453  RMS(g-h-1)= 3.861E-05  nbox= 16
     iter. #   454  RMS(g-h-1)= 3.848E-05  nbox= 17
     iter. #   455  RMS(g-h-1)= 3.843E-05  nbox=  2
     iter. #   456  RMS(g-h-1)= 3.828E-05  nbox=  3
     iter. #   457  RMS(g-h-1)= 3.812E-05  nbox=  4
     iter. #   458  RMS(g-h-1)= 3.795E-05  nbox=  5
     iter. #   459  RMS(g-h-1)= 3.783E-05  nbox=  6
     iter. #   460  RMS(g-h-1)= 3.774E-05  nbox=  7
     iter. #   461  RMS(g-h-1)= 3.761E-05  nbox=  8
     iter. #   462  RMS(g-h-1)= 3.746E-05  nbox=  9
     iter. #   463  RMS(g-h-1)= 3.731E-05  nbox= 10
     iter. #   464  RMS(g-h-1)= 3.716E-05  nbox= 11
     iter. #   465  RMS(g-h-1)= 3.702E-05  nbox= 12
     iter. #   466  RMS(g-h-1)= 3.687E-05  nbox= 13
     iter. #   467  RMS(g-h-1)= 3.678E-05  nbox= 14
     iter. #   468  RMS(g-h-1)= 3.669E-05  nbox= 15
     iter. #   469  RMS(g-h-1)= 3.656E-05  nbox= 16
     iter. #   470  RMS(g-h-1)= 3.642E-05  nbox= 17
     iter. #   471  RMS(g-h-1)= 3.639E-05  nbox=  2
     iter. #   472  RMS(g-h-1)= 3.623E-05  nbox=  3
     iter. #   473  RMS(g-h-1)= 3.607E-05  nbox=  4
     iter. #   474  RMS(g-h-1)= 3.589E-05  nbox=  5
     iter. #   475  RMS(g-h-1)= 3.574E-05  nbox=  6
     iter. #   476  RMS(g-h-1)= 3.562E-05  nbox=  7
     iter. #   477  RMS(g-h-1)= 3.546E-05  nbox=  8
     iter. #   478  RMS(g-h-1)= 3.529E-05  nbox=  9
     iter. #   479  RMS(g-h-1)= 3.512E-05  nbox= 10
     iter. #   480  RMS(g-h-1)= 3.491E-05  nbox= 11
     iter. #   481  RMS(g-h-1)= 3.473E-05  nbox= 12
     iter. #   482  RMS(g-h-1)= 3.458E-05  nbox= 13
     iter. #   483  RMS(g-h-1)= 3.447E-05  nbox= 14
     iter. #   484  RMS(g-h-1)= 3.434E-05  nbox= 15
     iter. #   485  RMS(g-h-1)= 3.419E-05  nbox= 16
     iter. #   486  RMS(g-h-1)= 3.403E-05  nbox= 17
     iter. #   487  RMS(g-h-1)= 3.400E-05  nbox=  2
     iter. #   488  RMS(g-h-1)= 3.385E-05  nbox=  3
     iter. #   489  RMS(g-h-1)= 3.369E-05  nbox=  4
     iter. #   490  RMS(g-h-1)= 3.357E-05  nbox=  5
     iter. #   491  RMS(g-h-1)= 3.345E-05  nbox=  6
     iter. #   492  RMS(g-h-1)= 3.340E-05  nbox=  7
     iter. #   493  RMS(g-h-1)= 3.326E-05  nbox=  8
     iter. #   494  RMS(g-h-1)= 3.312E-05  nbox=  9
     iter. #   495  RMS(g-h-1)= 3.300E-05  nbox= 10
     iter. #   496  RMS(g-h-1)= 3.285E-05  nbox= 11
     iter. #   497  RMS(g-h-1)= 3.273E-05  nbox= 12
     iter. #   498  RMS(g-h-1)= 3.262E-05  nbox= 13
     iter. #   499  RMS(g-h-1)= 3.256E-05  nbox= 14
     iter. #   500  RMS(g-h-1)= 3.245E-05  nbox= 15
     iter. #   501  RMS(g-h-1)= 3.235E-05  nbox= 16
     iter. #   502  RMS(g-h-1)= 3.227E-05  nbox= 17
     iter. #   503  RMS(g-h-1)= 3.226E-05  nbox=  2
     iter. #   504  RMS(g-h-1)= 3.217E-05  nbox=  3
     iter. #   505  RMS(g-h-1)= 3.209E-05  nbox=  4
     iter. #   506  RMS(g-h-1)= 3.203E-05  nbox=  5
     iter. #   507  RMS(g-h-1)= 3.195E-05  nbox=  6
     iter. #   508  RMS(g-h-1)= 3.193E-05  nbox=  7
     iter. #   509  RMS(g-h-1)= 3.184E-05  nbox=  8
     iter. #   510  RMS(g-h-1)= 3.177E-05  nbox=  9
     iter. #   511  RMS(g-h-1)= 3.170E-05  nbox= 10
     iter. #   512  RMS(g-h-1)= 3.164E-05  nbox= 11
     iter. #   513  RMS(g-h-1)= 3.159E-05  nbox= 12
     iter. #   514  RMS(g-h-1)= 3.154E-05  nbox= 13
     iter. #   515  RMS(g-h-1)= 3.151E-05  nbox= 14
     iter. #   516  RMS(g-h-1)= 3.146E-05  nbox= 15
     iter. #   517  RMS(g-h-1)= 3.140E-05  nbox= 16
     iter. #   518  RMS(g-h-1)= 3.134E-05  nbox= 17
     iter. #   519  RMS(g-h-1)= 3.133E-05  nbox=  2
     iter. #   520  RMS(g-h-1)= 3.127E-05  nbox=  3
     iter. #   521  RMS(g-h-1)= 3.121E-05  nbox=  4
     iter. #   522  RMS(g-h-1)= 3.115E-05  nbox=  5
     iter. #   523  RMS(g-h-1)= 3.110E-05  nbox=  6
     iter. #   524  RMS(g-h-1)= 3.107E-05  nbox=  7
     iter. #   525  RMS(g-h-1)= 3.104E-05  nbox=  8
     iter. #   526  RMS(g-h-1)= 3.099E-05  nbox=  9
     iter. #   527  RMS(g-h-1)= 3.094E-05  nbox= 10
     iter. #   528  RMS(g-h-1)= 3.088E-05  nbox= 11
     iter. #   529  RMS(g-h-1)= 3.080E-05  nbox= 12
     iter. #   530  RMS(g-h-1)= 3.074E-05  nbox= 13
     iter. #   531  RMS(g-h-1)= 3.067E-05  nbox= 14
     iter. #   532  RMS(g-h-1)= 3.060E-05  nbox= 15
     iter. #   533  RMS(g-h-1)= 3.055E-05  nbox= 16
     iter. #   534  RMS(g-h-1)= 3.047E-05  nbox= 17
     iter. #   535  RMS(g-h-1)= 3.045E-05  nbox=  2
     iter. #   536  RMS(g-h-1)= 3.037E-05  nbox=  3
     iter. #   537  RMS(g-h-1)= 3.029E-05  nbox=  4
     iter. #   538  RMS(g-h-1)= 3.022E-05  nbox=  5
     iter. #   539  RMS(g-h-1)= 3.012E-05  nbox=  6
     iter. #   540  RMS(g-h-1)= 3.008E-05  nbox=  7
     iter. #   541  RMS(g-h-1)= 2.998E-05  nbox=  8
     iter. #   542  RMS(g-h-1)= 2.988E-05  nbox=  9
     iter. #   543  RMS(g-h-1)= 2.976E-05  nbox= 10
     iter. #   544  RMS(g-h-1)= 2.964E-05  nbox= 11
     iter. #   545  RMS(g-h-1)= 2.951E-05  nbox= 12
     iter. #   546  RMS(g-h-1)= 2.945E-05  nbox= 13
     iter. #   547  RMS(g-h-1)= 2.932E-05  nbox= 14
     iter. #   548  RMS(g-h-1)= 2.921E-05  nbox= 15
     iter. #   549  RMS(g-h-1)= 2.906E-05  nbox= 16
     iter. #   550  RMS(g-h-1)= 2.892E-05  nbox= 17
     iter. #   551  RMS(g-h-1)= 2.889E-05  nbox=  2
     iter. #   552  RMS(g-h-1)= 2.872E-05  nbox=  3
     iter. #   553  RMS(g-h-1)= 2.859E-05  nbox=  4
     iter. #   554  RMS(g-h-1)= 2.843E-05  nbox=  5
     iter. #   555  RMS(g-h-1)= 2.833E-05  nbox=  6
     iter. #   556  RMS(g-h-1)= 2.823E-05  nbox=  7
     iter. #   557  RMS(g-h-1)= 2.812E-05  nbox=  8
     iter. #   558  RMS(g-h-1)= 2.799E-05  nbox=  9
     iter. #   559  RMS(g-h-1)= 2.784E-05  nbox= 10
     iter. #   560  RMS(g-h-1)= 2.771E-05  nbox= 11
     iter. #   561  RMS(g-h-1)= 2.757E-05  nbox= 12
     iter. #   562  RMS(g-h-1)= 2.748E-05  nbox= 13
     iter. #   563  RMS(g-h-1)= 2.737E-05  nbox= 14
     iter. #   564  RMS(g-h-1)= 2.726E-05  nbox= 15
     iter. #   565  RMS(g-h-1)= 2.713E-05  nbox= 16
     iter. #   566  RMS(g-h-1)= 2.700E-05  nbox= 17
     iter. #   567  RMS(g-h-1)= 2.698E-05  nbox=  2
     iter. #   568  RMS(g-h-1)= 2.686E-05  nbox=  3
     iter. #   569  RMS(g-h-1)= 2.675E-05  nbox=  4
     iter. #   570  RMS(g-h-1)= 2.667E-05  nbox=  5
     iter. #   571  RMS(g-h-1)= 2.659E-05  nbox=  6
     iter. #   572  RMS(g-h-1)= 2.655E-05  nbox=  7
     iter. #   573  RMS(g-h-1)= 2.649E-05  nbox=  8
     iter. #   574  RMS(g-h-1)= 2.642E-05  nbox=  9
     iter. #   575  RMS(g-h-1)= 2.636E-05  nbox= 10
     iter. #   576  RMS(g-h-1)= 2.629E-05  nbox= 11
     iter. #   577  RMS(g-h-1)= 2.622E-05  nbox= 12
     iter. #   578  RMS(g-h-1)= 2.616E-05  nbox= 13
     iter. #   579  RMS(g-h-1)= 2.610E-05  nbox= 14
     iter. #   580  RMS(g-h-1)= 2.607E-05  nbox= 15
     iter. #   581  RMS(g-h-1)= 2.601E-05  nbox= 16
     iter. #   582  RMS(g-h-1)= 2.594E-05  nbox= 17
     iter. #   583  RMS(g-h-1)= 2.593E-05  nbox=  2
     iter. #   584  RMS(g-h-1)= 2.586E-05  nbox=  3
     iter. #   585  RMS(g-h-1)= 2.579E-05  nbox=  4
     iter. #   586  RMS(g-h-1)= 2.572E-05  nbox=  5
     iter. #   587  RMS(g-h-1)= 2.566E-05  nbox=  6
     iter. #   588  RMS(g-h-1)= 2.561E-05  nbox=  7
     iter. #   589  RMS(g-h-1)= 2.557E-05  nbox=  8
     iter. #   590  RMS(g-h-1)= 2.552E-05  nbox=  9
     iter. #   591  RMS(g-h-1)= 2.546E-05  nbox= 10
     iter. #   592  RMS(g-h-1)= 2.543E-05  nbox= 11
     iter. #   593  RMS(g-h-1)= 2.537E-05  nbox= 12
     iter. #   594  RMS(g-h-1)= 2.539E-05  nbox= 13
     iter. #   595  RMS(g-h-1)= 2.528E-05  nbox= 14
     iter. #   596  RMS(g-h-1)= 2.527E-05  nbox= 15
     iter. #   597  RMS(g-h-1)= 2.521E-05  nbox= 16
     iter. #   598  RMS(g-h-1)= 2.516E-05  nbox= 17
     iter. #   599  RMS(g-h-1)= 2.514E-05  nbox=  2
     iter. #   600  RMS(g-h-1)= 2.509E-05  nbox=  3
     iter. #   601  RMS(g-h-1)= 2.503E-05  nbox=  4
     iter. #   602  RMS(g-h-1)= 2.499E-05  nbox=  5
     iter. #   603  RMS(g-h-1)= 2.493E-05  nbox=  6
     iter. #   604  RMS(g-h-1)= 2.495E-05  nbox=  7
     iter. #   605  RMS(g-h-1)= 2.486E-05  nbox=  8
     iter. #   606  RMS(g-h-1)= 2.485E-05  nbox=  9
     iter. #   607  RMS(g-h-1)= 2.480E-05  nbox= 10
     iter. #   608  RMS(g-h-1)= 2.476E-05  nbox= 11
     iter. #   609  RMS(g-h-1)= 2.472E-05  nbox= 12
     iter. #   610  RMS(g-h-1)= 2.468E-05  nbox= 13
     iter. #   611  RMS(g-h-1)= 2.463E-05  nbox= 14
     iter. #   612  RMS(g-h-1)= 2.462E-05  nbox= 15
     iter. #   613  RMS(g-h-1)= 2.456E-05  nbox= 16
     iter. #   614  RMS(g-h-1)= 2.451E-05  nbox= 17
     iter. #   615  RMS(g-h-1)= 2.449E-05  nbox=  2
     iter. #   616  RMS(g-h-1)= 2.443E-05  nbox=  3
     iter. #   617  RMS(g-h-1)= 2.438E-05  nbox=  4
     iter. #   618  RMS(g-h-1)= 2.432E-05  nbox=  5
     iter. #   619  RMS(g-h-1)= 2.425E-05  nbox=  6
     iter. #   620  RMS(g-h-1)= 2.418E-05  nbox=  7
     iter. #   621  RMS(g-h-1)= 2.413E-05  nbox=  8
     iter. #   622  RMS(g-h-1)= 2.407E-05  nbox=  9
     iter. #   623  RMS(g-h-1)= 2.399E-05  nbox= 10
     iter. #   624  RMS(g-h-1)= 2.391E-05  nbox= 11
     iter. #   625  RMS(g-h-1)= 2.382E-05  nbox= 12
     iter. #   626  RMS(g-h-1)= 2.373E-05  nbox= 13
     iter. #   627  RMS(g-h-1)= 2.365E-05  nbox= 14
     iter. #   628  RMS(g-h-1)= 2.358E-05  nbox= 15
     iter. #   629  RMS(g-h-1)= 2.353E-05  nbox= 16
     iter. #   630  RMS(g-h-1)= 2.347E-05  nbox= 17
     iter. #   631  RMS(g-h-1)= 2.345E-05  nbox=  2
     iter. #   632  RMS(g-h-1)= 2.335E-05  nbox=  3
     iter. #   633  RMS(g-h-1)= 2.328E-05  nbox=  4
     iter. #   634  RMS(g-h-1)= 2.319E-05  nbox=  5
     iter. #   635  RMS(g-h-1)= 2.311E-05  nbox=  6
     iter. #   636  RMS(g-h-1)= 2.304E-05  nbox=  7
     iter. #   637  RMS(g-h-1)= 2.300E-05  nbox=  8
     iter. #   638  RMS(g-h-1)= 2.291E-05  nbox=  9
     iter. #   639  RMS(g-h-1)= 2.283E-05  nbox= 10
     iter. #   640  RMS(g-h-1)= 2.275E-05  nbox= 11
     iter. #   641  RMS(g-h-1)= 2.266E-05  nbox= 12
     iter. #   642  RMS(g-h-1)= 2.261E-05  nbox= 13
     iter. #   643  RMS(g-h-1)= 2.256E-05  nbox= 14
     iter. #   644  RMS(g-h-1)= 2.249E-05  nbox= 15
     iter. #   645  RMS(g-h-1)= 2.241E-05  nbox= 16
     iter. #   646  RMS(g-h-1)= 2.233E-05  nbox= 17
     iter. #   647  RMS(g-h-1)= 2.232E-05  nbox=  2
     iter. #   648  RMS(g-h-1)= 2.223E-05  nbox=  3
     iter. #   649  RMS(g-h-1)= 2.216E-05  nbox=  4
     iter. #   650  RMS(g-h-1)= 2.209E-05  nbox=  5
     iter. #   651  RMS(g-h-1)= 2.203E-05  nbox=  6
     iter. #   652  RMS(g-h-1)= 2.198E-05  nbox=  7
     iter. #   653  RMS(g-h-1)= 2.194E-05  nbox=  8
     iter. #   654  RMS(g-h-1)= 2.189E-05  nbox=  9
     iter. #   655  RMS(g-h-1)= 2.183E-05  nbox= 10
     iter. #   656  RMS(g-h-1)= 2.178E-05  nbox= 11
     iter. #   657  RMS(g-h-1)= 2.175E-05  nbox= 12
     iter. #   658  RMS(g-h-1)= 2.170E-05  nbox= 13
     iter. #   659  RMS(g-h-1)= 2.166E-05  nbox= 14
     iter. #   660  RMS(g-h-1)= 2.161E-05  nbox= 15
     iter. #   661  RMS(g-h-1)= 2.156E-05  nbox= 16
     iter. #   662  RMS(g-h-1)= 2.152E-05  nbox= 17
     iter. #   663  RMS(g-h-1)= 2.151E-05  nbox=  2
     iter. #   664  RMS(g-h-1)= 2.145E-05  nbox=  3
     iter. #   665  RMS(g-h-1)= 2.141E-05  nbox=  4
     iter. #   666  RMS(g-h-1)= 2.134E-05  nbox=  5
     iter. #   667  RMS(g-h-1)= 2.129E-05  nbox=  6
     iter. #   668  RMS(g-h-1)= 2.125E-05  nbox=  7
     iter. #   669  RMS(g-h-1)= 2.122E-05  nbox=  8
     iter. #   670  RMS(g-h-1)= 2.117E-05  nbox=  9
     iter. #   671  RMS(g-h-1)= 2.112E-05  nbox= 10
     iter. #   672  RMS(g-h-1)= 2.106E-05  nbox= 11
     iter. #   673  RMS(g-h-1)= 2.100E-05  nbox= 12
     iter. #   674  RMS(g-h-1)= 2.094E-05  nbox= 13
     iter. #   675  RMS(g-h-1)= 2.087E-05  nbox= 14
     iter. #   676  RMS(g-h-1)= 2.080E-05  nbox= 15
     iter. #   677  RMS(g-h-1)= 2.075E-05  nbox= 16
     iter. #   678  RMS(g-h-1)= 2.070E-05  nbox= 17
     iter. #   679  RMS(g-h-1)= 2.067E-05  nbox=  2
     iter. #   680  RMS(g-h-1)= 2.058E-05  nbox=  3
     iter. #   681  RMS(g-h-1)= 2.049E-05  nbox=  4
     iter. #   682  RMS(g-h-1)= 2.039E-05  nbox=  5
     iter. #   683  RMS(g-h-1)= 2.028E-05  nbox=  6
     iter. #   684  RMS(g-h-1)= 2.022E-05  nbox=  7
     iter. #   685  RMS(g-h-1)= 2.012E-05  nbox=  8
     iter. #   686  RMS(g-h-1)= 2.003E-05  nbox=  9
     iter. #   687  RMS(g-h-1)= 1.990E-05  nbox= 10
     iter. #   688  RMS(g-h-1)= 1.977E-05  nbox= 11
     iter. #   689  RMS(g-h-1)= 1.962E-05  nbox= 12
     iter. #   690  RMS(g-h-1)= 1.948E-05  nbox= 13
     iter. #   691  RMS(g-h-1)= 1.938E-05  nbox= 14
     iter. #   692  RMS(g-h-1)= 1.925E-05  nbox= 15
     iter. #   693  RMS(g-h-1)= 1.912E-05  nbox= 16
     iter. #   694  RMS(g-h-1)= 1.895E-05  nbox= 17
     iter. #   695  RMS(g-h-1)= 1.894E-05  nbox=  2
     iter. #   696  RMS(g-h-1)= 1.875E-05  nbox=  3
     iter. #   697  RMS(g-h-1)= 1.860E-05  nbox=  4
     iter. #   698  RMS(g-h-1)= 1.851E-05  nbox=  5
     iter. #   699  RMS(g-h-1)= 1.835E-05  nbox=  6
     iter. #   700  RMS(g-h-1)= 1.831E-05  nbox=  7
     iter. #   701  RMS(g-h-1)= 1.817E-05  nbox=  8
     iter. #   702  RMS(g-h-1)= 1.804E-05  nbox=  9
     iter. #   703  RMS(g-h-1)= 1.792E-05  nbox= 10
     iter. #   704  RMS(g-h-1)= 1.779E-05  nbox= 11
     iter. #   705  RMS(g-h-1)= 1.766E-05  nbox= 12
     iter. #   706  RMS(g-h-1)= 1.760E-05  nbox= 13
     iter. #   707  RMS(g-h-1)= 1.748E-05  nbox= 14
     iter. #   708  RMS(g-h-1)= 1.737E-05  nbox= 15
     iter. #   709  RMS(g-h-1)= 1.722E-05  nbox= 16
     iter. #   710  RMS(g-h-1)= 1.709E-05  nbox= 17
     iter. #   711  RMS(g-h-1)= 1.707E-05  nbox=  2
     iter. #   712  RMS(g-h-1)= 1.690E-05  nbox=  3
     iter. #   713  RMS(g-h-1)= 1.675E-05  nbox=  4
     iter. #   714  RMS(g-h-1)= 1.666E-05  nbox=  5
     iter. #   715  RMS(g-h-1)= 1.652E-05  nbox=  6
     iter. #   716  RMS(g-h-1)= 1.646E-05  nbox=  7
     iter. #   717  RMS(g-h-1)= 1.632E-05  nbox=  8
     iter. #   718  RMS(g-h-1)= 1.620E-05  nbox=  9
     iter. #   719  RMS(g-h-1)= 1.607E-05  nbox= 10
     iter. #   720  RMS(g-h-1)= 1.595E-05  nbox= 11
     iter. #   721  RMS(g-h-1)= 1.583E-05  nbox= 12
     iter. #   722  RMS(g-h-1)= 1.572E-05  nbox= 13
     iter. #   723  RMS(g-h-1)= 1.565E-05  nbox= 14
     iter. #   724  RMS(g-h-1)= 1.552E-05  nbox= 15
     iter. #   725  RMS(g-h-1)= 1.538E-05  nbox= 16
     iter. #   726  RMS(g-h-1)= 1.525E-05  nbox= 17
     iter. #   727  RMS(g-h-1)= 1.521E-05  nbox=  2
     iter. #   728  RMS(g-h-1)= 1.506E-05  nbox=  3
     iter. #   729  RMS(g-h-1)= 1.492E-05  nbox=  4
     iter. #   730  RMS(g-h-1)= 1.477E-05  nbox=  5
     iter. #   731  RMS(g-h-1)= 1.467E-05  nbox=  6
     iter. #   732  RMS(g-h-1)= 1.454E-05  nbox=  7
     iter. #   733  RMS(g-h-1)= 1.439E-05  nbox=  8
     iter. #   734  RMS(g-h-1)= 1.422E-05  nbox=  9
     iter. #   735  RMS(g-h-1)= 1.405E-05  nbox= 10
     iter. #   736  RMS(g-h-1)= 1.391E-05  nbox= 11
     iter. #   737  RMS(g-h-1)= 1.381E-05  nbox= 12
     iter. #   738  RMS(g-h-1)= 1.367E-05  nbox= 13
     iter. #   739  RMS(g-h-1)= 1.352E-05  nbox= 14
     iter. #   740  RMS(g-h-1)= 1.336E-05  nbox= 15
     iter. #   741  RMS(g-h-1)= 1.321E-05  nbox= 16
     iter. #   742  RMS(g-h-1)= 1.312E-05  nbox= 17
     iter. #   743  RMS(g-h-1)= 1.306E-05  nbox=  2
     iter. #   744  RMS(g-h-1)= 1.294E-05  nbox=  3
     iter. #   745  RMS(g-h-1)= 1.280E-05  nbox=  4
     iter. #   746  RMS(g-h-1)= 1.265E-05  nbox=  5
     iter. #   747  RMS(g-h-1)= 1.249E-05  nbox=  6
     iter. #   748  RMS(g-h-1)= 1.245E-05  nbox=  7
     iter. #   749  RMS(g-h-1)= 1.228E-05  nbox=  8
     iter. #   750  RMS(g-h-1)= 1.216E-05  nbox=  9
     iter. #   751  RMS(g-h-1)= 1.200E-05  nbox= 10
     iter. #   752  RMS(g-h-1)= 1.188E-05  nbox= 11
     iter. #   753  RMS(g-h-1)= 1.177E-05  nbox= 12
     iter. #   754  RMS(g-h-1)= 1.165E-05  nbox= 13
     iter. #   755  RMS(g-h-1)= 1.153E-05  nbox= 14
     iter. #   756  RMS(g-h-1)= 1.148E-05  nbox= 15
     iter. #   757  RMS(g-h-1)= 1.136E-05  nbox= 16
     iter. #   758  RMS(g-h-1)= 1.125E-05  nbox= 17
     iter. #   759  RMS(g-h-1)= 1.123E-05  nbox=  2
     iter. #   760  RMS(g-h-1)= 1.110E-05  nbox=  3
     iter. #   761  RMS(g-h-1)= 1.100E-05  nbox=  4
     iter. #   762  RMS(g-h-1)= 1.091E-05  nbox=  5
     iter. #   763  RMS(g-h-1)= 1.084E-05  nbox=  6
     iter. #   764  RMS(g-h-1)= 1.079E-05  nbox=  7
     iter. #   765  RMS(g-h-1)= 1.071E-05  nbox=  8
     iter. #   766  RMS(g-h-1)= 1.064E-05  nbox=  9
     iter. #   767  RMS(g-h-1)= 1.057E-05  nbox= 10
     iter. #   768  RMS(g-h-1)= 1.050E-05  nbox= 11
     iter. #   769  RMS(g-h-1)= 1.043E-05  nbox= 12
     iter. #   770  RMS(g-h-1)= 1.037E-05  nbox= 13
     iter. #   771  RMS(g-h-1)= 1.033E-05  nbox= 14
     iter. #   772  RMS(g-h-1)= 1.027E-05  nbox= 15
     iter. #   773  RMS(g-h-1)= 1.019E-05  nbox= 16
     iter. #   774  RMS(g-h-1)= 1.014E-05  nbox= 17
     iter. #   775  RMS(g-h-1)= 1.012E-05  nbox=  2
     iter. #   776  RMS(g-h-1)= 1.005E-05  nbox=  3
     iter. #   777  RMS(g-h-1)= 9.997E-06  nbox=  4
     iter. #   778  RMS(g-h-1)= 9.940E-06  nbox=  5
     iter. #   779  RMS(g-h-1)= 9.882E-06  nbox=  6
     iter. #   780  RMS(g-h-1)= 9.864E-06  nbox=  7
     iter. #   781  RMS(g-h-1)= 9.808E-06  nbox=  8
     iter. #   782  RMS(g-h-1)= 9.752E-06  nbox=  9
     iter. #   783  RMS(g-h-1)= 9.694E-06  nbox= 10
     iter. #   784  RMS(g-h-1)= 9.633E-06  nbox= 11
     iter. #   785  RMS(g-h-1)= 9.573E-06  nbox= 12
     iter. #   786  RMS(g-h-1)= 9.544E-06  nbox= 13
     iter. #   787  RMS(g-h-1)= 9.488E-06  nbox= 14
     iter. #   788  RMS(g-h-1)= 9.510E-06  nbox= 15
     iter. #   789  RMS(g-h-1)= 9.392E-06  nbox= 16
     iter. #   790  RMS(g-h-1)= 9.350E-06  nbox= 17
     iter. #   791  RMS(g-h-1)= 9.340E-06  nbox=  2
     iter. #   792  RMS(g-h-1)= 9.291E-06  nbox=  3
     iter. #   793  RMS(g-h-1)= 9.247E-06  nbox=  4
     iter. #   794  RMS(g-h-1)= 9.204E-06  nbox=  5
     iter. #   795  RMS(g-h-1)= 9.168E-06  nbox=  6
     iter. #   796  RMS(g-h-1)= 9.146E-06  nbox=  7
     iter. #   797  RMS(g-h-1)= 9.116E-06  nbox=  8
     iter. #   798  RMS(g-h-1)= 9.085E-06  nbox=  9
     iter. #   799  RMS(g-h-1)= 9.051E-06  nbox= 10
     iter. #   800  RMS(g-h-1)= 9.021E-06  nbox= 11
     iter. #   801  RMS(g-h-1)= 8.985E-06  nbox= 12
     iter. #   802  RMS(g-h-1)= 8.952E-06  nbox= 13
     iter. #   803  RMS(g-h-1)= 8.920E-06  nbox= 14
     iter. #   804  RMS(g-h-1)= 8.889E-06  nbox= 15
     iter. #   805  RMS(g-h-1)= 8.874E-06  nbox= 16
     iter. #   806  RMS(g-h-1)= 8.844E-06  nbox= 17
     iter. #   807  RMS(g-h-1)= 8.833E-06  nbox=  2
     iter. #   808  RMS(g-h-1)= 8.792E-06  nbox=  3
     iter. #   809  RMS(g-h-1)= 8.754E-06  nbox=  4
     iter. #   810  RMS(g-h-1)= 8.719E-06  nbox=  5
     iter. #   811  RMS(g-h-1)= 8.688E-06  nbox=  6
     iter. #   812  RMS(g-h-1)= 8.671E-06  nbox=  7
     iter. #   813  RMS(g-h-1)= 8.641E-06  nbox=  8
     iter. #   814  RMS(g-h-1)= 8.612E-06  nbox=  9
     iter. #   815  RMS(g-h-1)= 8.582E-06  nbox= 10
     iter. #   816  RMS(g-h-1)= 8.550E-06  nbox= 11
     iter. #   817  RMS(g-h-1)= 8.517E-06  nbox= 12
     iter. #   818  RMS(g-h-1)= 8.473E-06  nbox= 13
     iter. #   819  RMS(g-h-1)= 8.440E-06  nbox= 14
     iter. #   820  RMS(g-h-1)= 8.410E-06  nbox= 15
     iter. #   821  RMS(g-h-1)= 8.381E-06  nbox= 16
     iter. #   822  RMS(g-h-1)= 8.339E-06  nbox= 17
     iter. #   823  RMS(g-h-1)= 8.330E-06  nbox=  2
     iter. #   824  RMS(g-h-1)= 8.280E-06  nbox=  3
     iter. #   825  RMS(g-h-1)= 8.232E-06  nbox=  4
     iter. #   826  RMS(g-h-1)= 8.189E-06  nbox=  5
     iter. #   827  RMS(g-h-1)= 8.139E-06  nbox=  6
     iter. #   828  RMS(g-h-1)= 8.117E-06  nbox=  7
     iter. #   829  RMS(g-h-1)= 8.072E-06  nbox=  8
     iter. #   830  RMS(g-h-1)= 8.024E-06  nbox=  9
     iter. #   831  RMS(g-h-1)= 7.984E-06  nbox= 10
     iter. #   832  RMS(g-h-1)= 7.940E-06  nbox= 11
     iter. #   833  RMS(g-h-1)= 7.900E-06  nbox= 12
     iter. #   834  RMS(g-h-1)= 8.006E-06  nbox= 13
     iter. #   835  RMS(g-h-1)= 7.833E-06  nbox= 14
     iter. #   836  RMS(g-h-1)= 7.832E-06  nbox= 15
     iter. #   837  RMS(g-h-1)= 7.787E-06  nbox= 16
     iter. #   838  RMS(g-h-1)= 7.750E-06  nbox= 17
     iter. #   839  RMS(g-h-1)= 7.737E-06  nbox=  2
     iter. #   840  RMS(g-h-1)= 7.697E-06  nbox=  3
     iter. #   841  RMS(g-h-1)= 7.653E-06  nbox=  4
     iter. #   842  RMS(g-h-1)= 7.616E-06  nbox=  5
     iter. #   843  RMS(g-h-1)= 7.571E-06  nbox=  6
     iter. #   844  RMS(g-h-1)= 7.551E-06  nbox=  7
     iter. #   845  RMS(g-h-1)= 7.518E-06  nbox=  8
     iter. #   846  RMS(g-h-1)= 7.482E-06  nbox=  9
     iter. #   847  RMS(g-h-1)= 7.448E-06  nbox= 10
     iter. #   848  RMS(g-h-1)= 7.413E-06  nbox= 11
     iter. #   849  RMS(g-h-1)= 7.378E-06  nbox= 12
     iter. #   850  RMS(g-h-1)= 7.343E-06  nbox= 13
     iter. #   851  RMS(g-h-1)= 7.309E-06  nbox= 14
     iter. #   852  RMS(g-h-1)= 7.291E-06  nbox= 15
     iter. #   853  RMS(g-h-1)= 7.259E-06  nbox= 16
     iter. #   854  RMS(g-h-1)= 7.223E-06  nbox= 17
     iter. #   855  RMS(g-h-1)= 7.213E-06  nbox=  2
     iter. #   856  RMS(g-h-1)= 7.171E-06  nbox=  3
     iter. #   857  RMS(g-h-1)= 7.134E-06  nbox=  4
     iter. #   858  RMS(g-h-1)= 7.089E-06  nbox=  5
     iter. #   859  RMS(g-h-1)= 7.051E-06  nbox=  6
     iter. #   860  RMS(g-h-1)= 7.031E-06  nbox=  7
     iter. #   861  RMS(g-h-1)= 6.992E-06  nbox=  8
     iter. #   862  RMS(g-h-1)= 6.956E-06  nbox=  9
     iter. #   863  RMS(g-h-1)= 6.919E-06  nbox= 10
     iter. #   864  RMS(g-h-1)= 6.886E-06  nbox= 11
     iter. #   865  RMS(g-h-1)= 6.854E-06  nbox= 12
     iter. #   866  RMS(g-h-1)= 6.827E-06  nbox= 13
     iter. #   867  RMS(g-h-1)= 6.812E-06  nbox= 14
     iter. #   868  RMS(g-h-1)= 6.783E-06  nbox= 15
     iter. #   869  RMS(g-h-1)= 6.757E-06  nbox= 16
     iter. #   870  RMS(g-h-1)= 6.729E-06  nbox= 17
     iter. #   871  RMS(g-h-1)= 6.723E-06  nbox=  2
     iter. #   872  RMS(g-h-1)= 6.695E-06  nbox=  3
     iter. #   873  RMS(g-h-1)= 6.670E-06  nbox=  4
     iter. #   874  RMS(g-h-1)= 6.642E-06  nbox=  5
     iter. #   875  RMS(g-h-1)= 6.620E-06  nbox=  6
     iter. #   876  RMS(g-h-1)= 6.601E-06  nbox=  7
     iter. #   877  RMS(g-h-1)= 6.581E-06  nbox=  8
     iter. #   878  RMS(g-h-1)= 6.556E-06  nbox=  9
     iter. #   879  RMS(g-h-1)= 6.527E-06  nbox= 10
     iter. #   880  RMS(g-h-1)= 6.499E-06  nbox= 11
     iter. #   881  RMS(g-h-1)= 6.474E-06  nbox= 12
     iter. #   882  RMS(g-h-1)= 6.454E-06  nbox= 13
     iter. #   883  RMS(g-h-1)= 6.429E-06  nbox= 14
     iter. #   884  RMS(g-h-1)= 6.467E-06  nbox= 15
     iter. #   885  RMS(g-h-1)= 6.398E-06  nbox= 16
     iter. #   886  RMS(g-h-1)= 6.390E-06  nbox= 17
     iter. #   887  RMS(g-h-1)= 6.383E-06  nbox=  2
     iter. #   888  RMS(g-h-1)= 6.363E-06  nbox=  3
     iter. #   889  RMS(g-h-1)= 6.345E-06  nbox=  4
     iter. #   890  RMS(g-h-1)= 6.325E-06  nbox=  5
     iter. #   891  RMS(g-h-1)= 6.306E-06  nbox=  6

     End of Laue-RISM calculation


     convergence has been achieved in   891 iterations


     solvent charge    0.00239, renormalised to    0.00000

     Total number of solvent (in expand-cell)
     H2O           97.485076
     K+             1.612487
     OH-            1.611340

     Total charge of solvent (in expand-cell)
     H2O            0.000174 e
     K+             1.612487 e
     OH-           -1.610275 e
     Total          0.002386 e

     Chemical potential of solvation (in expand-cell)
     H2O        GaussFluct   0.143164E+01 kcal/mol
     K+         GaussFluct   0.188129E+01 kcal/mol
     OH-        GaussFluct  -0.126101E+01 kcal/mol
     Total      GaussFluct   0.205192E+01 kcal/mol

     Starting wfc are  332 randomized atomic wfcs
     Checking if some PAW data can be deallocated... 
       node    0, deallocated PAW data for type:  2
       node    0, deallocated PAW data for type:  3
       node    1, deallocated PAW data for type:  2
[...]
     atom   19 type  1   force =    -0.00000533   -0.04957294   61.63660448
     atom   20 type  1   force =    -0.21136156   -0.12205335   65.56288974
     atom   21 type  1   force =     0.21136072   -0.12207611   65.56286147
     atom   22 type  1   force =     0.01486424   -0.00856099   62.69850558
     atom   23 type  1   force =    -0.00001652    0.24407374   65.56286787
     atom   24 type  1   force =    -0.01485129   -0.00856950   62.69854477
     atom   25 type  1   force =     0.04289268    0.02478663   61.63654822
     atom   26 type  1   force =    -0.04291217    0.02478877   61.63661041
     atom   27 type  1   force =     0.00001643    0.01717634   62.69852133
     atom   28 type  1   force =    -0.00000240   -0.00001333  203.69292831
     atom   29 type  1   force =    -0.59896932   -0.75825771  202.93354671
     atom   30 type  1   force =     0.59897212   -0.75826803  202.93350620
     atom   31 type  1   force =    -0.95614377   -0.13960849  202.93350005
     atom   32 type  1   force =     0.00001070   -0.00000371  203.54199149
     atom   33 type  1   force =     0.95615090   -0.13961820  202.93352959
     atom   34 type  1   force =    -0.35718570    0.89787459  202.93349194
     atom   35 type  1   force =     0.35717188    0.89787549  202.93354752
     atom   36 type  1   force =     0.00001782    0.00002740  204.43712219
     atom   37 type  2   force =     0.00002488    0.00001514   93.10219038
     atom   38 type  3   force =    -0.00003773   -0.00002472  164.50343657
     The local contribution  to forces
     atom    1 type  1   force =     0.00000324   -0.00003435  217.60707655
     atom    2 type  1   force =     0.02314199   -0.02520208  217.76106520
     atom    3 type  1   force =    -0.02314708   -0.02520050  217.76106096
     atom    4 type  1   force =    -0.01022414    0.03262774  217.76108167
     atom    5 type  1   force =    -0.00000124    0.00000195  217.72430202
     atom    6 type  1   force =     0.01022395    0.03263147  217.76108663
     atom    7 type  1   force =    -0.03336681   -0.00743279  217.76107131
     atom    8 type  1   force =     0.03336881   -0.00742967  217.76108229
     atom    9 type  1   force =    -0.00000426    0.00002849  217.84870282
     atom   10 type  1   force =     0.02266917    0.01310348   77.50399428
     atom   11 type  1   force =    -0.00000746   -0.16349011   77.20051375
     atom   12 type  1   force =    -0.02266066    0.01312335   77.50400185
     atom   13 type  1   force =    -0.14160470    0.08175846   77.20052422
     atom   14 type  1   force =     0.14161717    0.08177627   77.20051369
     atom   15 type  1   force =    -0.00001255    0.09683742   77.81433393
     atom   16 type  1   force =     0.00002320   -0.02620573   77.50396070
     atom   17 type  1   force =     0.08384720   -0.04845309   77.81427338
     atom   18 type  1   force =    -0.08386924   -0.04844927   77.81428571
     atom   19 type  1   force =     0.00000536    0.04464092  -61.66123463
     atom   20 type  1   force =     0.22459845    0.12969560  -65.56594154
     atom   21 type  1   force =    -0.22459774    0.12971829  -65.56591340
     atom   22 type  1   force =    -0.02289566    0.01319799  -62.72696941
     atom   23 type  1   force =     0.00001636   -0.25935841  -65.56591971
     atom   24 type  1   force =     0.02288282    0.01320651  -62.72700868
     atom   25 type  1   force =    -0.03862156   -0.02232068  -61.66117841
     atom   26 type  1   force =     0.03864096   -0.02232270  -61.66124068
     atom   27 type  1   force =    -0.00001643   -0.02645020  -62.72698534
     atom   28 type  1   force =     0.00000203    0.00001336 -203.72225505
     atom   29 type  1   force =     0.57956905    0.72622906 -203.01441679
     atom   30 type  1   force =    -0.57957149    0.72623946 -203.01437544
     atom   31 type  1   force =     0.91870581    0.13882205 -203.01436895
     atom   32 type  1   force =    -0.00001062    0.00000391 -203.57420470
     atom   33 type  1   force =    -0.91871320    0.13883143 -203.01439846
     atom   34 type  1   force =     0.33914820   -0.86505918 -203.01436063
     atom   35 type  1   force =    -0.33913453   -0.86506043 -203.01441688
     atom   36 type  1   force =    -0.00001763   -0.00002784 -204.46740479
     atom   37 type  2   force =    -0.00002157   -0.00001294  -94.00256843
     atom   38 type  3   force =     0.00002806    0.00001855 -161.70138745
     The core correction contribution to forces
     atom    1 type  1   force =    -0.00000001   -0.00000008    0.01936097
     atom    2 type  1   force =    -0.00022849    0.00003955    0.01940568
     atom    3 type  1   force =     0.00022848    0.00003955    0.01940568
     atom    4 type  1   force =    -0.00007993   -0.00021769    0.01940571
     atom    5 type  1   force =    -0.00000001   -0.00000001    0.01894684
     atom    6 type  1   force =     0.00007992   -0.00021769    0.01940573
     atom    7 type  1   force =     0.00014856    0.00017814    0.01940569
     atom    8 type  1   force =    -0.00014856    0.00017814    0.01940570
     atom    9 type  1   force =    -0.00000001    0.00000008    0.01978174
     atom   10 type  1   force =     0.00024856    0.00014356    0.00010109
     atom   11 type  1   force =    -0.00000001   -0.00063905   -0.00036829
     atom   12 type  1   force =    -0.00024856    0.00014359    0.00010109
     atom   13 type  1   force =    -0.00055348    0.00031954   -0.00036827
     atom   14 type  1   force =     0.00055351    0.00031957   -0.00036825
     atom   15 type  1   force =    -0.00000002    0.00028379    0.00066319
     atom   16 type  1   force =     0.00000004   -0.00028708    0.00010112
     atom   17 type  1   force =     0.00024575   -0.00014197    0.00066319
     atom   18 type  1   force =    -0.00024579   -0.00014196    0.00066319
     atom   19 type  1   force =     0.00000003   -0.00035388   -0.00018399
     atom   20 type  1   force =     0.00157595    0.00090990    0.00096480
     atom   21 type  1   force =    -0.00157595    0.00090994    0.00096481
     atom   22 type  1   force =     0.00009144   -0.00005281    0.00047119
     atom   23 type  1   force =     0.00000002   -0.00181976    0.00096480
     atom   24 type  1   force =    -0.00009145   -0.00005279    0.00047121
     atom   25 type  1   force =     0.00030651    0.00017693   -0.00018403
     atom   26 type  1   force =    -0.00030648    0.00017695   -0.00018402
     atom   27 type  1   force =    -0.00000002    0.00010557    0.00047119
     atom   28 type  1   force =    -0.00000002    0.00000002   -0.01961732
     atom   29 type  1   force =    -0.00089008   -0.00171707   -0.02007797
     atom   30 type  1   force =     0.00089009   -0.00171704   -0.02007794
     atom   31 type  1   force =    -0.00193209    0.00008774   -0.02007799
     atom   32 type  1   force =    -0.00000010   -0.00000005    0.02490712
     atom   33 type  1   force =     0.00193205    0.00008774   -0.02007798
     atom   34 type  1   force =    -0.00104197    0.00162935   -0.02007797
     atom   35 type  1   force =     0.00104199    0.00162931   -0.02007797
     atom   36 type  1   force =    -0.00000004   -0.00000005   -0.02025235
     atom   37 type  2   force =     0.00000008    0.00000005   -0.01651132
     atom   38 type  3   force =    -0.00000008   -0.00000005    0.02223982
     The Hubbard contrib.    to forces
     atom    1 type  1   force =     0.00000000    0.00000000    0.00000000
     atom    2 type  1   force =     0.00000000    0.00000000    0.00000000
     atom    3 type  1   force =     0.00000000    0.00000000    0.00000000
     atom    4 type  1   force =     0.00000000    0.00000000    0.00000000
     atom    5 type  1   force =     0.00000000    0.00000000    0.00000000
     atom    6 type  1   force =     0.00000000    0.00000000    0.00000000
     atom    7 type  1   force =     0.00000000    0.00000000    0.00000000
     atom    8 type  1   force =     0.00000000    0.00000000    0.00000000
     atom    9 type  1   force =     0.00000000    0.00000000    0.00000000
     atom   10 type  1   force =     0.00000000    0.00000000    0.00000000
     atom   11 type  1   force =     0.00000000    0.00000000    0.00000000
     atom   12 type  1   force =     0.00000000    0.00000000    0.00000000
     atom   13 type  1   force =     0.00000000    0.00000000    0.00000000
     atom   14 type  1   force =     0.00000000    0.00000000    0.00000000
     atom   15 type  1   force =     0.00000000    0.00000000    0.00000000
     atom   16 type  1   force =     0.00000000    0.00000000    0.00000000
     atom   17 type  1   force =     0.00000000    0.00000000    0.00000000
     atom   18 type  1   force =     0.00000000    0.00000000    0.00000000
     atom   19 type  1   force =     0.00000000    0.00000000    0.00000000
     atom   20 type  1   force =     0.00000000    0.00000000    0.00000000
     atom   21 type  1   force =     0.00000000    0.00000000    0.00000000
     atom   22 type  1   force =     0.00000000    0.00000000    0.00000000
     atom   23 type  1   force =     0.00000000    0.00000000    0.00000000
     atom   24 type  1   force =     0.00000000    0.00000000    0.00000000
     atom   25 type  1   force =     0.00000000    0.00000000    0.00000000
     atom   26 type  1   force =     0.00000000    0.00000000    0.00000000
     atom   27 type  1   force =     0.00000000    0.00000000    0.00000000
     atom   28 type  1   force =     0.00000000    0.00000000    0.00000000
     atom   29 type  1   force =     0.00000000    0.00000000    0.00000000
     atom   30 type  1   force =     0.00000000    0.00000000    0.00000000
     atom   31 type  1   force =     0.00000000    0.00000000    0.00000000
     atom   32 type  1   force =     0.00000000    0.00000000    0.00000000
     atom   33 type  1   force =     0.00000000    0.00000000    0.00000000
     atom   34 type  1   force =     0.00000000    0.00000000    0.00000000
     atom   35 type  1   force =     0.00000000    0.00000000    0.00000000
     atom   36 type  1   force =     0.00000000    0.00000000    0.00000000
     atom   37 type  2   force =     0.00000000    0.00000000    0.00000000
     atom   38 type  3   force =     0.00000000    0.00000000    0.00000000
     The SCF correction term to forces
     atom    1 type  1   force =     0.00000000    0.00000000    0.00000000
     atom    2 type  1   force =     0.00000000    0.00000000    0.00000000
     atom    3 type  1   force =     0.00000000    0.00000000    0.00000000
     atom    4 type  1   force =     0.00000000    0.00000000    0.00000000
     atom    5 type  1   force =     0.00000000    0.00000000    0.00000000
     atom    6 type  1   force =     0.00000000    0.00000000    0.00000000
     atom    7 type  1   force =     0.00000000    0.00000000    0.00000000
     atom    8 type  1   force =     0.00000000    0.00000000    0.00000000
     atom    9 type  1   force =     0.00000000    0.00000000    0.00000000
     atom   10 type  1   force =    -0.00000012   -0.00000009   -0.00000097
     atom   11 type  1   force =     0.00000001   -0.00000009   -0.00000104
     atom   12 type  1   force =     0.00000011   -0.00000007   -0.00000098
     atom   13 type  1   force =    -0.00000006    0.00000007   -0.00000102
     atom   14 type  1   force =     0.00000008    0.00000007   -0.00000103
     atom   15 type  1   force =    -0.00000001    0.00000002   -0.00000093
     atom   16 type  1   force =     0.00000001    0.00000012   -0.00000096
     atom   17 type  1   force =    -0.00000001   -0.00000002   -0.00000096
     atom   18 type  1   force =     0.00000000   -0.00000002   -0.00000095
     atom   19 type  1   force =     0.00000001   -0.00000012   -0.00000101
     atom   20 type  1   force =    -0.00000022   -0.00000011   -0.00000112
     atom   21 type  1   force =     0.00000023   -0.00000010   -0.00000110
     atom   22 type  1   force =    -0.00000013    0.00000009   -0.00000104
     atom   23 type  1   force =     0.00000001    0.00000027   -0.00000113
     atom   24 type  1   force =     0.00000012    0.00000010   -0.00000105
     atom   25 type  1   force =     0.00000013    0.00000003   -0.00000102
     atom   26 type  1   force =    -0.00000013    0.00000003   -0.00000102
     atom   27 type  1   force =     0.00000000   -0.00000017   -0.00000104
     atom   28 type  1   force =    -0.00000002   -0.00000001   -0.00000078
     atom   29 type  1   force =    -0.00000020   -0.00000012   -0.00000088
     atom   30 type  1   force =     0.00000022   -0.00000012   -0.00000084
     atom   31 type  1   force =    -0.00000020   -0.00000008   -0.00000086
     atom   32 type  1   force =     0.00000001    0.00000002   -0.00000082
     atom   33 type  1   force =     0.00000018   -0.00000010   -0.00000085
     atom   34 type  1   force =     0.00000001    0.00000023   -0.00000087
     atom   35 type  1   force =    -0.00000001    0.00000021   -0.00000088
     atom   36 type  1   force =     0.00000000   -0.00000003   -0.00000086
     atom   37 type  2   force =     0.00000001    0.00000000    0.00000004
     atom   38 type  3   force =     0.00000001    0.00000000   -0.00000057

     3D-RISM Solvation contribution to forces:
     atom    1 type  1   force =     0.00000001    0.00000000    0.00000318
     atom    2 type  1   force =     0.00001377    0.00002681    0.00003121
     atom    3 type  1   force =    -0.00001376    0.00002683    0.00003121
     atom    4 type  1   force =     0.00003010   -0.00000148    0.00003121
     atom    5 type  1   force =     0.00000004    0.00000002    0.00009074
     atom    6 type  1   force =    -0.00003011   -0.00000146    0.00003129
     atom    7 type  1   force =     0.00001635   -0.00002533    0.00003121
     atom    8 type  1   force =    -0.00001632   -0.00002534    0.00003130
     atom    9 type  1   force =    -0.00000003   -0.00000002   -0.00000189
     atom   10 type  1   force =     0.00016182    0.00009342    0.00003135
     atom   11 type  1   force =     0.00000002    0.00022843    0.00033993
     atom   12 type  1   force =    -0.00016176    0.00009350    0.00003136
     atom   13 type  1   force =     0.00019785   -0.00011420    0.00033992
     atom   14 type  1   force =    -0.00019773   -0.00011416    0.00033995
     atom   15 type  1   force =    -0.00000006   -0.00005897   -0.00006700
     atom   16 type  1   force =     0.00000010   -0.00018684    0.00003136
     atom   17 type  1   force =    -0.00005111    0.00002944   -0.00006698
     atom   18 type  1   force =     0.00005104    0.00002947   -0.00006700
     atom   19 type  1   force =     0.00000009    0.00031007   -0.00055937
     atom   20 type  1   force =     0.00119862    0.00069197    0.00229005
     atom   21 type  1   force =    -0.00119853    0.00069207    0.00229007
     atom   22 type  1   force =     0.00131808   -0.00076100   -0.00010916
     atom   23 type  1   force =     0.00000013   -0.00138397    0.00229007
     atom   24 type  1   force =    -0.00131807   -0.00076093   -0.00010897
     atom   25 type  1   force =    -0.00026841   -0.00015496   -0.00055947
     atom   26 type  1   force =     0.00026862   -0.00015498   -0.00055928
     atom   27 type  1   force =    -0.00000005    0.00152202   -0.00010906
     atom   28 type  1   force =     0.00000033    0.00000001   -0.01867163
     atom   29 type  1   force =     0.00598994    0.01148062    0.00358672
     atom   30 type  1   force =    -0.00599024    0.01148096    0.00358631
     atom   31 type  1   force =     0.01293780   -0.00055321    0.00358603
     atom   32 type  1   force =     0.00000032    0.00000012    0.01092584
     atom   33 type  1   force =    -0.01293812   -0.00055288    0.00358630
     atom   34 type  1   force =     0.00694794   -0.01092799    0.00358602
     atom   35 type  1   force =    -0.00694767   -0.01092800    0.00358669
     atom   36 type  1   force =    -0.00000028    0.00000039   -0.02060221
     atom   37 type  2   force =     0.00000015   -0.00000025   -0.01912074
     atom   38 type  3   force =     0.00000015   -0.00000074   -0.07890798

     Total force =     0.054807     Total SCF correction =     0.000005

     Total 3D-RISM Solvation Force =     0.092727

     Writing output data file Cu-vib.save
 
     init_run     :    389.21s CPU    198.13s WALL (       1 calls)
     electrons    :   7315.00s CPU   3729.10s WALL (       1 calls)
     forces       :     26.79s CPU     13.30s WALL (       1 calls)

     Called by init_run:
     wfcinit      :     57.88s CPU     30.32s WALL (       1 calls)
     wfcinit:atom :      0.02s CPU      0.02s WALL (      34 calls)
     wfcinit:wfcr :     56.45s CPU     29.98s WALL (      34 calls)
     potinit      :    322.69s CPU    163.14s WALL (       1 calls)

     Called by electrons:
     c_bands      :   4291.89s CPU   2202.66s WALL (      37 calls)
     sum_band     :    587.62s CPU    304.71s WALL (      37 calls)
     v_of_rho     :     53.35s CPU     24.30s WALL (      37 calls)
     v_h          :      0.59s CPU      0.59s WALL (      74 calls)
     v_xc         :     53.66s CPU     24.62s WALL (      38 calls)
     newd         :      2.37s CPU      1.34s WALL (      37 calls)
     PAW_pot      :      9.78s CPU      3.03s WALL (      37 calls)
     mix_rho      :      0.62s CPU      0.63s WALL (      37 calls)

     Called by c_bands:
     init_us_2    :      3.78s CPU      1.68s WALL (    2584 calls)
     crmmdiagg    :   2788.21s CPU   1397.23s WALL (    1258 calls)
     wfcrot       :   1478.23s CPU    788.42s WALL (    1224 calls)
     gsorth       :     76.58s CPU     44.23s WALL (    1258 calls)

     Called by sum_band:
     sum_band:bec :      3.40s CPU      1.35s WALL (    1258 calls)
     addusdens    :      1.34s CPU      1.34s WALL (      37 calls)

     Called by *rmmdiagg:
     h_psi        :   3848.59s CPU   1952.11s WALL (   10782 calls)
     s_psi        :     54.91s CPU     29.32s WALL (   10782 calls)
     cdiaghg      :    152.70s CPU     89.74s WALL (    1224 calls)
     cdiaghg:chol :      3.68s CPU      3.09s WALL (    1224 calls)
     cdiaghg:inve :      3.54s CPU      2.00s WALL (    1224 calls)
     cdiaghg:para :      2.95s CPU      1.94s WALL (    2448 calls)

     Called by h_psi:
     h_psi:pot    :   3847.11s CPU   1950.59s WALL (   10782 calls)
     h_psi:calbec :    117.90s CPU     73.76s WALL (   10782 calls)
     vloc_psi     :   3677.23s CPU   1846.48s WALL (   10782 calls)
     add_vuspsi   :     51.76s CPU     30.16s WALL (   10782 calls)

     General routines
     calbec       :    156.85s CPU     94.70s WALL (   12176 calls)
     fft          :     32.85s CPU     17.48s WALL (    2615 calls)
     ffts         :      0.17s CPU      0.17s WALL (      74 calls)
     fftw         :   4156.51s CPU   2081.23s WALL ( 2144194 calls)
     fftc         :      0.23s CPU      0.17s WALL (      74 calls)
     interpolate  :      0.66s CPU      0.66s WALL (      74 calls)
 
     Parallel routines
     fft_scatter  :   2826.07s CPU   1553.27s WALL ( 2238950 calls)

     PAW routines
     PAW_pot      :      9.78s CPU      3.03s WALL (      37 calls)

     RISM routines
     1DRISM_pre   :     28.79s CPU     14.37s WALL (       1 calls)
     1DRISM_run   :      0.23s CPU      1.18s WALL (       1 calls)
     3DRISM_pre   :     10.66s CPU      6.32s WALL (       1 calls)
     3DRISM_run   :   2676.89s CPU   1346.62s WALL (      37 calls)
     3DRISM_for   :      6.01s CPU      2.89s WALL (       1 calls)
     3DRISM_vsol  :      0.23s CPU      0.24s WALL (      37 calls)
 
     PWSCF        :     2h11m CPU        1h 7m WALL

 
   This run was terminated on:  21:17:38  10Feb2026            

=------------------------------------------------------------------------------=
   JOB DONE.
=------------------------------------------------------------------------------=
