
     Program PWSCF v.6.1 starts on  9Feb2026 at 14: 5:49 

     This program is part of the open-source Quantum ESPRESSO suite
     for quantum simulation of materials; please cite
         "P. Giannozzi et al., J. Phys.:Condens. Matter 21 395502 (2009);
          URL http://www.quantum-espresso.org", 
     in publications or presentations arising from this work. More details at
     http://www.quantum-espresso.org/quote

     Parallel version (MPI & OpenMP), running on     192 processor cores
     Number of MPI processes:                96
     Threads/MPI process:                     2
     R & G space division:  proc/nbgrp/npool/nimage =      96
     Reading input from espresso.pwi
Warning: card &IONS ignored
Warning: card    ION_DYNAMICS     = 'BFGS' ignored
Warning: card / ignored
Warning: card &CELL ignored
Warning: card / ignored
Warning: card &FCP ignored
Warning: card / ignored
Warning: card &RISM ignored
Warning: card / ignored

     Current dimensions of program PWSCF are:
     Max number of different atomic species (ntypx) = 10
     Max number of k-points (npk) =  40000
     Max angular momentum in pseudopotentials (lmaxx) =  3

     IMPORTANT: XC functional enforced from input :
     Exchange-correlation      = VDW-DF2 ( 1  4 13  0 2 0)
     Any further DFT definition will be discarded
     Please, verify this is what you really want

               file O.pbe-n-kjpaw_psl.1.0.0.UPF: wavefunction(s)  2S 2P renormalized
               file H.pbe-kjpaw_psl.1.0.0.UPF: wavefunction(s)  1S renormalized

     Subspace diagonalization in iterative solution of the eigenvalue problem:
     one sub-group per band group will be used
     ELPA distributed-memory algorithm (size of sub-group:  6*  6 procs)

 
     Parallelization info
     --------------------
     sticks:   dense  smooth     PW     G-vecs:    dense   smooth      PW
     Min         740     296     74               148294    37508    4688
     Max         741     297     76               148300    37516    4690
     Sum       71041   28417   7129             14236565  3601159  450127
 


     bravais-lattice index     =            0
     lattice parameter (alat)  =      37.7945  a.u.
     unit-cell volume          =   53986.6738 (a.u.)^3
     number of atoms/cell      =            3
     number of atomic types    =            2
     number of electrons       =         8.00
     number of Kohn-Sham states=           40
     kinetic-energy cutoff     =      62.4738  Ry
     charge density cutoff     =     624.7385  Ry
     convergence threshold     =      7.3E-12
     mixing beta               =       0.3333
     number of iterations used =           12  plain     mixing
     Exchange-correlation      = VDW-DF2 ( 1  4 13  0 2 0)

     Effective Screening Medium Method
     =================================
     Boundary Conditions: Vacuum-Slab-Vacuum
     total charge in unit cell        =   0.0000
     grid points for fit at edges     =        4 
 

     celldm(1)=  37.794522  celldm(2)=   0.000000  celldm(3)=   0.000000
     celldm(4)=   0.000000  celldm(5)=   0.000000  celldm(6)=   0.000000

     crystal axes: (cart. coord. in units of alat)
               a(1) = (   1.000000   0.000000   0.000000 )  
               a(2) = (   0.000000   1.000000   0.000000 )  
               a(3) = (   0.000000   0.000000   1.000000 )  

     reciprocal axes: (cart. coord. in units 2 pi/alat)
               b(1) = (  1.000000  0.000000  0.000000 )  
               b(2) = (  0.000000  1.000000  0.000000 )  
               b(3) = (  0.000000  0.000000  1.000000 )  


     PseudoPot. # 1 for  O read from file:
     /work/gf93/f93007/QE/pseudo/O.pbe-n-kjpaw_psl.1.0.0.UPF
     MD5 check sum: c61d840054b6bba219e553541e327118
     Pseudo is Projector augmented-wave + core cor, Zval =  6.0
     Generated using "atomic" code by A. Dal Corso  v.6.1 svn rev. 13369
     Shape of augmentation charge: PSQ
     Using radial grid of 1095 points,  4 beta functions with: 
                l(1) =   0
                l(2) =   0
                l(3) =   1
                l(4) =   1
     Q(r) pseudized with 0 coefficients 


     PseudoPot. # 2 for  H read from file:
     /work/gf93/f93007/QE/pseudo/H.pbe-kjpaw_psl.1.0.0.UPF
     MD5 check sum: 29603ce6b94be0cf73e39cbb1f958d8e
     Pseudo is Projector augmented-wave, Zval =  1.0
     Generated using "atomic" code by A. Dal Corso  v.6.1 svn rev. 13369
     Shape of augmentation charge: PSQ
     Using radial grid of  929 points,  2 beta functions with: 
                l(1) =   0
                l(2) =   0
     Q(r) pseudized with 0 coefficients 


     vdW kernel table read from file vdW_kernel_table
     MD5 check sum: 6d69797d2e858e93e031fb7d16d30e50

     atomic species   valence    mass     pseudopotential
        O              6.00    15.99900      O( 1.00)
        H              1.00     1.00800      H( 1.00)

     No symmetry found


                                    s                        frac. trans.

      isym =  1     identity                                     

 cryst.   s( 1) = (     1          0          0      )
                  (     0          1          0      )
                  (     0          0          1      )

 cart.    s( 1) = (  1.0000000  0.0000000  0.0000000 )
                  (  0.0000000  1.0000000  0.0000000 )
                  (  0.0000000  0.0000000  1.0000000 )


   Cartesian axes

     site n.     atom                  positions (alat units)
         1           O   tau(   1) = (   0.5000000   0.5000000   0.0001590  )
         2           H   tau(   2) = (   0.5005000   0.5384535   0.0297364  )
         3           H   tau(   3) = (   0.5000000   0.4615465   0.0297364  )

   Crystallographic axes

     site n.     atom                  positions (cryst. coord.)
         1           O   tau(   1) = (  0.5000000  0.5000000  0.0001590  )
         2           H   tau(   2) = (  0.5005000  0.5384535  0.0297364  )
         3           H   tau(   3) = (  0.5000000  0.4615465  0.0297364  )

     number of k points=     1
                       cart. coord. in units 2pi/alat
        k(    1) = (   0.0000000   0.0000000   0.0000000), wk =   2.0000000

                       cryst. coord.
        k(    1) = (   0.0000000   0.0000000   0.0000000), wk =   2.0000000

     Dense  grid: 14236565 G-vectors     FFT dimensions: ( 320, 320, 320)

     Smooth grid:  3601159 G-vectors     FFT dimensions: ( 192, 192, 192)

     Estimated max dynamical RAM per process >     488.77MB

     Estimated total allocated dynamical RAM >   46922.27MB

     Initial potential from superposition of free atoms
     Check: negative starting charge=   -0.001152

     starting charge    7.99998, renormalised to    8.00000

     negative rho (up, down):  1.152E-03 0.000E+00


     %%%%%%%%%%%%%%%%%%%%%%%%%%%%%%%%%%%%%%%%%%%%%%%%%%%%%%%%%%%%%%%%%%%%%%%%
     %                                                                      %
     % You are using vdW-DF, which was implemented by the Thonhauser group. %
     % Please cite the following two papers that made this development      %
     % possible and the two reviews that describe the various versions:     %
     %                                                                      %
     %   T. Thonhauser et al., PRL 115, 136402 (2015).                      %
     %   T. Thonhauser et al., PRB 76, 125112 (2007).                       %
     %   K. Berland et al., Rep. Prog. Phys. 78, 066501 (2015).             %
     %   D.C. Langreth et al., J. Phys.: Condens. Matter 21, 084203 (2009). %
     %                                                                      %
     %                                                                      %
     % If you are calculating the stress with vdW-DF, please also cite:     %
     %                                                                      %
     %   R. Sabatini et al., J. Phys.: Condens. Matter 24, 424209 (2012).   %
     %                                                                      %
     %%%%%%%%%%%%%%%%%%%%%%%%%%%%%%%%%%%%%%%%%%%%%%%%%%%%%%%%%%%%%%%%%%%%%%%%


     Carrying out vdW-DF run using the following parameters:
     Nqs    =  20  Npoints =  1024  r_max =  100.000
     q_mesh =  0.00001000  0.04494208  0.09755937  0.15916263
               0.23128650  0.31572767  0.41458969  0.53033537
               0.66584808  0.82450364  1.01025438  1.22772762
               1.48234092  1.78043706  2.12944203  2.53805004
               3.01644009  3.57652955  4.23227104  5.00000000


     -----------------------------------------------
     Non-local corr. energy    =       0.13358247 Ry
     -----------------------------------------------

     Starting wfc are    6 randomized atomic wfcs +   34 random wfc
     Checking if some PAW data can be deallocated... 
       node    0, deallocated PAW data for type:  2
       node    1, deallocated PAW data for type:  2
       node    2, deallocated PAW data for type:  2
       node    3, deallocated PAW data for type:  2
       node    4, deallocated PAW data for type:  2
       node    5, deallocated PAW data for type:  2
       node    6, deallocated PAW data for type:  2
       node    7, deallocated PAW data for type:  2
       node    8, deallocated PAW data for type:  2
       node    9, deallocated PAW data for type:  2
       node   10, deallocated PAW data for type:  2
       node   11, deallocated PAW data for type:  2
       node   12, deallocated PAW data for type:  2
       node   13, deallocated PAW data for type:  2
       node   14, deallocated PAW data for type:  2
       node   15, deallocated PAW data for type:  2
       node   16, deallocated PAW data for type:  2
       node   17, deallocated PAW data for type:  2
       node   18, deallocated PAW data for type:  2
       node   19, deallocated PAW data for type:  2
       node   20, deallocated PAW data for type:  2
       node   21, deallocated PAW data for type:  2
       node   22, deallocated PAW data for type:  2
       node   23, deallocated PAW data for type:  2
       node   24, deallocated PAW data for type:  2
       node   25, deallocated PAW data for type:  2
       node   26, deallocated PAW data for type:  2
       node   27, deallocated PAW data for type:  2
       node   28, deallocated PAW data for type:  2
       node   29, deallocated PAW data for type:  2
       node   30, deallocated PAW data for type:  2
       node   31, deallocated PAW data for type:  2
       node   32, deallocated PAW data for type:  1
       node   33, deallocated PAW data for type:  1
       node   34, deallocated PAW data for type:  1
       node   35, deallocated PAW data for type:  1
       node   36, deallocated PAW data for type:  1
       node   37, deallocated PAW data for type:  1
       node   38, deallocated PAW data for type:  1
       node   39, deallocated PAW data for type:  1
       node   40, deallocated PAW data for type:  1
       node   41, deallocated PAW data for type:  1
       node   42, deallocated PAW data for type:  1
       node   43, deallocated PAW data for type:  1
       node   44, deallocated PAW data for type:  1
       node   45, deallocated PAW data for type:  1
       node   46, deallocated PAW data for type:  1
       node   47, deallocated PAW data for type:  1
       node   48, deallocated PAW data for type:  1
       node   49, deallocated PAW data for type:  1
       node   50, deallocated PAW data for type:  1
       node   51, deallocated PAW data for type:  1
       node   52, deallocated PAW data for type:  1
       node   53, deallocated PAW data for type:  1
       node   54, deallocated PAW data for type:  1
       node   55, deallocated PAW data for type:  1
       node   56, deallocated PAW data for type:  1
       node   57, deallocated PAW data for type:  1
       node   58, deallocated PAW data for type:  1
       node   59, deallocated PAW data for type:  1
       node   60, deallocated PAW data for type:  1
       node   61, deallocated PAW data for type:  1
       node   62, deallocated PAW data for type:  1
       node   63, deallocated PAW data for type:  1
       node   64, deallocated PAW data for type:  1
       node   65, deallocated PAW data for type:  1
       node   66, deallocated PAW data for type:  1
       node   67, deallocated PAW data for type:  1
       node   68, deallocated PAW data for type:  1
       node   69, deallocated PAW data for type:  1
       node   70, deallocated PAW data for type:  1
       node   71, deallocated PAW data for type:  1
       node   72, deallocated PAW data for type:  1
       node   73, deallocated PAW data for type:  1
       node   74, deallocated PAW data for type:  1
       node   75, deallocated PAW data for type:  1
       node   76, deallocated PAW data for type:  1
       node   77, deallocated PAW data for type:  1
       node   78, deallocated PAW data for type:  1
       node   79, deallocated PAW data for type:  1
       node   80, deallocated PAW data for type:  1
       node   81, deallocated PAW data for type:  1
       node   82, deallocated PAW data for type:  1
       node   83, deallocated PAW data for type:  1
       node   84, deallocated PAW data for type:  1
       node   85, deallocated PAW data for type:  1
       node   86, deallocated PAW data for type:  1
       node   87, deallocated PAW data for type:  1
       node   88, deallocated PAW data for type:  1
       node   89, deallocated PAW data for type:  1
       node   90, deallocated PAW data for type:  1
       node   91, deallocated PAW data for type:  1
       node   92, deallocated PAW data for type:  1
       node   93, deallocated PAW data for type:  1
       node   94, deallocated PAW data for type:  1
       node   95, deallocated PAW data for type:  1

     total cpu time spent up to now is       25.4 secs

     per-process dynamical memory:   213.0 Mb

     Self-consistent Calculation

     iteration #  1     ecut=    62.47 Ry     beta=0.33
     Davidson diagonalization with overlap
     ethr =  1.00E-02,  avg # of iterations = 12.0

     negative rho (up, down):  1.366E-03 0.000E+00


     -----------------------------------------------
     Non-local corr. energy    =       0.13510402 Ry
     -----------------------------------------------


     total cpu time spent up to now is       34.7 secs

     total energy              =     -44.94351680 Ry
     Harris-Foulkes estimate   =     -45.19777585 Ry
     estimated scf accuracy    <       0.53974586 Ry

     iteration #  2     ecut=    62.47 Ry     beta=0.33
     Davidson diagonalization with overlap
     ethr =  6.75E-03,  avg # of iterations =  1.0

     negative rho (up, down):  9.286E-04 0.000E+00


     -----------------------------------------------
     Non-local corr. energy    =       0.13567834 Ry
     -----------------------------------------------


     total cpu time spent up to now is       41.3 secs

     total energy              =     -44.98592336 Ry
     Harris-Foulkes estimate   =     -45.00563726 Ry
     estimated scf accuracy    <       0.04823938 Ry

     iteration #  3     ecut=    62.47 Ry     beta=0.33
     Davidson diagonalization with overlap
     ethr =  6.03E-04,  avg # of iterations =  6.0

     negative rho (up, down):  1.497E-03 0.000E+00


     -----------------------------------------------
     Non-local corr. energy    =       0.13505109 Ry
     -----------------------------------------------


     total cpu time spent up to now is       49.1 secs

     total energy              =     -45.00632756 Ry
     Harris-Foulkes estimate   =     -45.03715468 Ry
     estimated scf accuracy    <       0.04741870 Ry

     iteration #  4     ecut=    62.47 Ry     beta=0.33
     Davidson diagonalization with overlap
     ethr =  5.93E-04,  avg # of iterations =  3.0

     negative rho (up, down):  1.561E-03 0.000E+00


     -----------------------------------------------
     Non-local corr. energy    =       0.13635454 Ry
     -----------------------------------------------


     total cpu time spent up to now is       55.9 secs

     total energy              =     -45.01066687 Ry
     Harris-Foulkes estimate   =     -45.04345182 Ry
     estimated scf accuracy    <       0.06421293 Ry

     iteration #  5     ecut=    62.47 Ry     beta=0.33
     Davidson diagonalization with overlap
     ethr =  5.93E-04,  avg # of iterations =  1.0

     negative rho (up, down):  1.490E-03 0.000E+00


     -----------------------------------------------
     Non-local corr. energy    =       0.13631164 Ry
     -----------------------------------------------


     total cpu time spent up to now is       62.4 secs

     total energy              =     -45.01788987 Ry
     Harris-Foulkes estimate   =     -45.01824346 Ry
     estimated scf accuracy    <       0.00388447 Ry

     iteration #  6     ecut=    62.47 Ry     beta=0.33
     Davidson diagonalization with overlap
     ethr =  4.86E-05,  avg # of iterations = 13.0

     negative rho (up, down):  1.493E-03 0.000E+00


     -----------------------------------------------
     Non-local corr. energy    =       0.13625173 Ry
     -----------------------------------------------


     total cpu time spent up to now is       71.0 secs

     total energy              =     -45.02475797 Ry
     Harris-Foulkes estimate   =     -45.02509511 Ry
     estimated scf accuracy    <       0.00146639 Ry

     iteration #  7     ecut=    62.47 Ry     beta=0.33
     Davidson diagonalization with overlap
     ethr =  1.83E-05,  avg # of iterations =  4.0

     negative rho (up, down):  1.567E-03 0.000E+00


     -----------------------------------------------
     Non-local corr. energy    =       0.13617364 Ry
     -----------------------------------------------


     total cpu time spent up to now is       77.8 secs

     total energy              =     -45.02442958 Ry
     Harris-Foulkes estimate   =     -45.02478779 Ry
     estimated scf accuracy    <       0.00072960 Ry

     iteration #  8     ecut=    62.47 Ry     beta=0.33
     Davidson diagonalization with overlap
     ethr =  9.12E-06,  avg # of iterations =  3.0

     negative rho (up, down):  1.580E-03 0.000E+00


     -----------------------------------------------
     Non-local corr. energy    =       0.13616892 Ry
     -----------------------------------------------


     total cpu time spent up to now is       84.5 secs

     total energy              =     -45.02471086 Ry
     Harris-Foulkes estimate   =     -45.02471106 Ry
     estimated scf accuracy    <       0.00007067 Ry

     iteration #  9     ecut=    62.47 Ry     beta=0.33
     Davidson diagonalization with overlap
     ethr =  8.83E-07,  avg # of iterations = 20.0

     negative rho (up, down):  1.594E-03 0.000E+00


     -----------------------------------------------
     Non-local corr. energy    =       0.13616913 Ry
     -----------------------------------------------


     total cpu time spent up to now is       93.1 secs

     total energy              =     -45.02470857 Ry
     Harris-Foulkes estimate   =     -45.02471146 Ry
     estimated scf accuracy    <       0.00007031 Ry

     iteration # 10     ecut=    62.47 Ry     beta=0.33
     Davidson diagonalization with overlap
     ethr =  8.79E-07,  avg # of iterations =  1.0

     negative rho (up, down):  1.598E-03 0.000E+00


     -----------------------------------------------
     Non-local corr. energy    =       0.13617581 Ry
     -----------------------------------------------


     total cpu time spent up to now is       99.7 secs

     total energy              =     -45.02469457 Ry
     Harris-Foulkes estimate   =     -45.02470862 Ry
     estimated scf accuracy    <       0.00006336 Ry

     iteration # 11     ecut=    62.47 Ry     beta=0.33
     Davidson diagonalization with overlap
     ethr =  7.92E-07,  avg # of iterations =  1.0

     negative rho (up, down):  1.598E-03 0.000E+00


     -----------------------------------------------
     Non-local corr. energy    =       0.13617578 Ry
     -----------------------------------------------


     total cpu time spent up to now is      106.2 secs

     total energy              =     -45.02469601 Ry
     Harris-Foulkes estimate   =     -45.02469587 Ry
     estimated scf accuracy    <       0.00003040 Ry

     iteration # 12     ecut=    62.47 Ry     beta=0.33
     Davidson diagonalization with overlap
     ethr =  3.80E-07,  avg # of iterations =  1.0

     negative rho (up, down):  1.598E-03 0.000E+00


     -----------------------------------------------
     Non-local corr. energy    =       0.13617562 Ry
     -----------------------------------------------


     total cpu time spent up to now is      112.8 secs

     total energy              =     -45.02469644 Ry
     Harris-Foulkes estimate   =     -45.02469632 Ry
     estimated scf accuracy    <       0.00002975 Ry

     iteration # 13     ecut=    62.47 Ry     beta=0.33
     Davidson diagonalization with overlap
     ethr =  3.72E-07,  avg # of iterations =  1.0

     negative rho (up, down):  1.598E-03 0.000E+00


     -----------------------------------------------
     Non-local corr. energy    =       0.13617577 Ry
     -----------------------------------------------


     total cpu time spent up to now is      119.4 secs

     total energy              =     -45.02469647 Ry
     Harris-Foulkes estimate   =     -45.02469674 Ry
     estimated scf accuracy    <       0.00002595 Ry

     iteration # 14     ecut=    62.47 Ry     beta=0.33
     Davidson diagonalization with overlap
     ethr =  3.24E-07,  avg # of iterations =  1.0

     negative rho (up, down):  1.598E-03 0.000E+00


     -----------------------------------------------
     Non-local corr. energy    =       0.13617600 Ry
     -----------------------------------------------


     total cpu time spent up to now is      126.0 secs

     total energy              =     -45.02469604 Ry
     Harris-Foulkes estimate   =     -45.02469665 Ry
     estimated scf accuracy    <       0.00002469 Ry

     iteration # 15     ecut=    62.47 Ry     beta=0.33
     Davidson diagonalization with overlap
     ethr =  3.09E-07,  avg # of iterations =  1.0

     negative rho (up, down):  1.598E-03 0.000E+00


     -----------------------------------------------
     Non-local corr. energy    =       0.13617613 Ry
     -----------------------------------------------


     total cpu time spent up to now is      132.5 secs

     total energy              =     -45.02469569 Ry
     Harris-Foulkes estimate   =     -45.02469617 Ry
     estimated scf accuracy    <       0.00002147 Ry

     iteration # 16     ecut=    62.47 Ry     beta=0.33
     Davidson diagonalization with overlap
     ethr =  2.68E-07,  avg # of iterations =  1.0

     negative rho (up, down):  1.597E-03 0.000E+00


     -----------------------------------------------
     Non-local corr. energy    =       0.13617629 Ry
     -----------------------------------------------


     total cpu time spent up to now is      139.0 secs

     total energy              =     -45.02469656 Ry
     Harris-Foulkes estimate   =     -45.02469590 Ry
     estimated scf accuracy    <       0.00001882 Ry

     iteration # 17     ecut=    62.47 Ry     beta=0.33
     Davidson diagonalization with overlap
     ethr =  2.35E-07,  avg # of iterations =  1.0

     negative rho (up, down):  1.597E-03 0.000E+00


     -----------------------------------------------
     Non-local corr. energy    =       0.13617627 Ry
     -----------------------------------------------


     total cpu time spent up to now is      145.5 secs

     total energy              =     -45.02469613 Ry
     Harris-Foulkes estimate   =     -45.02469666 Ry
     estimated scf accuracy    <       0.00001945 Ry

     iteration # 18     ecut=    62.47 Ry     beta=0.33
     Davidson diagonalization with overlap
     ethr =  2.35E-07,  avg # of iterations =  1.0

     negative rho (up, down):  1.593E-03 0.000E+00


     -----------------------------------------------
     Non-local corr. energy    =       0.13617528 Ry
     -----------------------------------------------


     total cpu time spent up to now is      152.1 secs

     total energy              =     -45.02469762 Ry
     Harris-Foulkes estimate   =     -45.02469632 Ry
     estimated scf accuracy    <       0.00001638 Ry

     iteration # 19     ecut=    62.47 Ry     beta=0.33
     Davidson diagonalization with overlap
     ethr =  2.05E-07,  avg # of iterations =  1.0

     negative rho (up, down):  1.583E-03 0.000E+00


     -----------------------------------------------
     Non-local corr. energy    =       0.13617553 Ry
     -----------------------------------------------


     total cpu time spent up to now is      158.6 secs

     total energy              =     -45.02469450 Ry
     Harris-Foulkes estimate   =     -45.02469769 Ry
     estimated scf accuracy    <       0.00001873 Ry

     iteration # 20     ecut=    62.47 Ry     beta=0.33
     Davidson diagonalization with overlap
     ethr =  2.05E-07,  avg # of iterations =  1.0

     negative rho (up, down):  1.576E-03 0.000E+00


     -----------------------------------------------
     Non-local corr. energy    =       0.13617662 Ry
     -----------------------------------------------


     total cpu time spent up to now is      165.2 secs

     total energy              =     -45.02469204 Ry
     Harris-Foulkes estimate   =     -45.02469492 Ry
     estimated scf accuracy    <       0.00000956 Ry

     iteration # 21     ecut=    62.47 Ry     beta=0.33
     Davidson diagonalization with overlap
     ethr =  1.19E-07,  avg # of iterations =  1.0

     negative rho (up, down):  1.576E-03 0.000E+00


     -----------------------------------------------
     Non-local corr. energy    =       0.13617654 Ry
     -----------------------------------------------


     total cpu time spent up to now is      171.8 secs

     total energy              =     -45.02469272 Ry
     Harris-Foulkes estimate   =     -45.02469281 Ry
     estimated scf accuracy    <       0.00000184 Ry

     iteration # 22     ecut=    62.47 Ry     beta=0.33
     Davidson diagonalization with overlap
     ethr =  2.31E-08,  avg # of iterations =  3.0

     negative rho (up, down):  1.575E-03 0.000E+00


     -----------------------------------------------
     Non-local corr. energy    =       0.13617680 Ry
     -----------------------------------------------


     total cpu time spent up to now is      178.6 secs

     total energy              =     -45.02469380 Ry
     Harris-Foulkes estimate   =     -45.02469375 Ry
     estimated scf accuracy    <       0.00000013 Ry

     iteration # 23     ecut=    62.47 Ry     beta=0.33
     Davidson diagonalization with overlap
     ethr =  1.61E-09,  avg # of iterations =  3.0

     negative rho (up, down):  1.572E-03 0.000E+00


     -----------------------------------------------
     Non-local corr. energy    =       0.13617738 Ry
     -----------------------------------------------


     total cpu time spent up to now is      185.3 secs

     total energy              =     -45.02469416 Ry
     Harris-Foulkes estimate   =     -45.02469391 Ry
     estimated scf accuracy    <       0.00000039 Ry

     iteration # 24     ecut=    62.47 Ry     beta=0.33
     Davidson diagonalization with overlap
     ethr =  1.61E-09,  avg # of iterations =  1.0

     negative rho (up, down):  1.574E-03 0.000E+00


     -----------------------------------------------
     Non-local corr. energy    =       0.13617777 Ry
     -----------------------------------------------


     total cpu time spent up to now is      191.8 secs

     total energy              =     -45.02469385 Ry
     Harris-Foulkes estimate   =     -45.02469418 Ry
     estimated scf accuracy    <       0.00000075 Ry

     iteration # 25     ecut=    62.47 Ry     beta=0.33
     Davidson diagonalization with overlap
     ethr =  1.61E-09,  avg # of iterations =  2.0

     negative rho (up, down):  1.574E-03 0.000E+00


     -----------------------------------------------
     Non-local corr. energy    =       0.13617676 Ry
     -----------------------------------------------


     total cpu time spent up to now is      198.5 secs

     total energy              =     -45.02469387 Ry
     Harris-Foulkes estimate   =     -45.02469388 Ry
     estimated scf accuracy    <       0.00000029 Ry

     iteration # 26     ecut=    62.47 Ry     beta=0.33
     Davidson diagonalization with overlap
     ethr =  1.61E-09,  avg # of iterations =  1.0

     negative rho (up, down):  1.581E-03 0.000E+00


     -----------------------------------------------
     Non-local corr. energy    =       0.13618006 Ry
     -----------------------------------------------


     total cpu time spent up to now is      205.1 secs

     total energy              =     -45.02469353 Ry
     Harris-Foulkes estimate   =     -45.02469387 Ry
     estimated scf accuracy    <       0.00000033 Ry

     iteration # 27     ecut=    62.47 Ry     beta=0.33
     Davidson diagonalization with overlap
     ethr =  1.61E-09,  avg # of iterations =  4.0

     negative rho (up, down):  1.578E-03 0.000E+00


     -----------------------------------------------
     Non-local corr. energy    =       0.13617943 Ry
     -----------------------------------------------


     total cpu time spent up to now is      211.9 secs

     total energy              =     -45.02469354 Ry
     Harris-Foulkes estimate   =     -45.02469510 Ry
     estimated scf accuracy    <       0.00000580 Ry

     iteration # 28     ecut=    62.47 Ry     beta=0.33
     Davidson diagonalization with overlap
     ethr =  1.61E-09,  avg # of iterations =  3.0

     negative rho (up, down):  1.576E-03 0.000E+00


     -----------------------------------------------
     Non-local corr. energy    =       0.13617909 Ry
     -----------------------------------------------


     total cpu time spent up to now is      218.6 secs

     total energy              =     -45.02469366 Ry
     Harris-Foulkes estimate   =     -45.02469384 Ry
     estimated scf accuracy    <       0.00000133 Ry

     iteration # 29     ecut=    62.47 Ry     beta=0.33
     Davidson diagonalization with overlap
     ethr =  1.61E-09,  avg # of iterations =  1.0

     negative rho (up, down):  1.574E-03 0.000E+00


     -----------------------------------------------
     Non-local corr. energy    =       0.13617952 Ry
     -----------------------------------------------


     total cpu time spent up to now is      225.3 secs

     total energy              =     -45.02469357 Ry
     Harris-Foulkes estimate   =     -45.02469368 Ry
     estimated scf accuracy    <       0.00000081 Ry

     iteration # 30     ecut=    62.47 Ry     beta=0.33
     Davidson diagonalization with overlap
     ethr =  1.61E-09,  avg # of iterations =  3.0

     negative rho (up, down):  1.574E-03 0.000E+00


     -----------------------------------------------
     Non-local corr. energy    =       0.13617882 Ry
     -----------------------------------------------


     total cpu time spent up to now is      232.0 secs

     total energy              =     -45.02469380 Ry
     Harris-Foulkes estimate   =     -45.02469378 Ry
     estimated scf accuracy    <          7.8E-09 Ry

     iteration # 31     ecut=    62.47 Ry     beta=0.33
     Davidson diagonalization with overlap
     ethr =  9.74E-11,  avg # of iterations =  3.0

     negative rho (up, down):  1.571E-03 0.000E+00


     -----------------------------------------------
     Non-local corr. energy    =       0.13617884 Ry
     -----------------------------------------------


     total cpu time spent up to now is      238.9 secs

     total energy              =     -45.02469387 Ry
     Harris-Foulkes estimate   =     -45.02469381 Ry
     estimated scf accuracy    <       0.00000004 Ry

     iteration # 32     ecut=    62.47 Ry     beta=0.33
     Davidson diagonalization with overlap
     ethr =  9.74E-11,  avg # of iterations =  3.0

     negative rho (up, down):  1.572E-03 0.000E+00


     -----------------------------------------------
     Non-local corr. energy    =       0.13617882 Ry
     -----------------------------------------------


     total cpu time spent up to now is      245.7 secs

     total energy              =     -45.02469387 Ry
     Harris-Foulkes estimate   =     -45.02469389 Ry
     estimated scf accuracy    <          8.4E-09 Ry

     iteration # 33     ecut=    62.47 Ry     beta=0.33
     Davidson diagonalization with overlap
     ethr =  9.74E-11,  avg # of iterations =  1.0

     negative rho (up, down):  1.572E-03 0.000E+00


     -----------------------------------------------
     Non-local corr. energy    =       0.13617881 Ry
     -----------------------------------------------


     total cpu time spent up to now is      252.3 secs

     total energy              =     -45.02469387 Ry
     Harris-Foulkes estimate   =     -45.02469387 Ry
     estimated scf accuracy    <          4.5E-10 Ry

     iteration # 34     ecut=    62.47 Ry     beta=0.33
     Davidson diagonalization with overlap
     ethr =  5.67E-12,  avg # of iterations =  4.0

     negative rho (up, down):  1.572E-03 0.000E+00


     -----------------------------------------------
     Non-local corr. energy    =       0.13617883 Ry
     -----------------------------------------------


     total cpu time spent up to now is      259.3 secs

     total energy              =     -45.02469388 Ry
     Harris-Foulkes estimate   =     -45.02469387 Ry
     estimated scf accuracy    <          4.3E-10 Ry

     iteration # 35     ecut=    62.47 Ry     beta=0.33
     Davidson diagonalization with overlap
     ethr =  5.35E-12,  avg # of iterations =  3.0

     negative rho (up, down):  1.572E-03 0.000E+00


     -----------------------------------------------
     Non-local corr. energy    =       0.13617882 Ry
     -----------------------------------------------


     total cpu time spent up to now is      266.0 secs

     total energy              =     -45.02469387 Ry
     Harris-Foulkes estimate   =     -45.02469388 Ry
     estimated scf accuracy    <          7.4E-10 Ry

     iteration # 36     ecut=    62.47 Ry     beta=0.33
     Davidson diagonalization with overlap
     ethr =  5.35E-12,  avg # of iterations =  1.0

     negative rho (up, down):  1.572E-03 0.000E+00


     -----------------------------------------------
     Non-local corr. energy    =       0.13617882 Ry
     -----------------------------------------------


     total cpu time spent up to now is      272.6 secs

     total energy              =     -45.02469387 Ry
     Harris-Foulkes estimate   =     -45.02469387 Ry
     estimated scf accuracy    <          3.0E-10 Ry

     iteration # 37     ecut=    62.47 Ry     beta=0.33
     Davidson diagonalization with overlap
     ethr =  3.71E-12,  avg # of iterations =  2.0

     negative rho (up, down):  1.572E-03 0.000E+00


     -----------------------------------------------
     Non-local corr. energy    =       0.13617882 Ry
     -----------------------------------------------


     total cpu time spent up to now is      279.2 secs

     total energy              =     -45.02469387 Ry
     Harris-Foulkes estimate   =     -45.02469387 Ry
     estimated scf accuracy    <          2.1E-11 Ry

     iteration # 38     ecut=    62.47 Ry     beta=0.33
     Davidson diagonalization with overlap
     ethr =  2.62E-13,  avg # of iterations =  1.0

     negative rho (up, down):  1.572E-03 0.000E+00


     -----------------------------------------------
     Non-local corr. energy    =       0.13617882 Ry
     -----------------------------------------------


     total cpu time spent up to now is      285.8 secs

     total energy              =     -45.02469387 Ry
     Harris-Foulkes estimate   =     -45.02469387 Ry
     estimated scf accuracy    <          1.5E-11 Ry

     iteration # 39     ecut=    62.47 Ry     beta=0.33
     Davidson diagonalization with overlap
     ethr =  1.88E-13,  avg # of iterations =  3.0

     negative rho (up, down):  1.572E-03 0.000E+00


     -----------------------------------------------
     Non-local corr. energy    =       0.13617882 Ry
     -----------------------------------------------


     total cpu time spent up to now is      292.6 secs

     total energy              =     -45.02469387 Ry
     Harris-Foulkes estimate   =     -45.02469387 Ry
     estimated scf accuracy    <          2.4E-11 Ry

     iteration # 40     ecut=    62.47 Ry     beta=0.33
     Davidson diagonalization with overlap
     ethr =  1.88E-13,  avg # of iterations =  1.0

     negative rho (up, down):  1.572E-03 0.000E+00


     -----------------------------------------------
     Non-local corr. energy    =       0.13617882 Ry
     -----------------------------------------------


     total cpu time spent up to now is      299.2 secs

     total energy              =     -45.02469387 Ry
     Harris-Foulkes estimate   =     -45.02469387 Ry
     estimated scf accuracy    <          1.0E-11 Ry

     iteration # 41     ecut=    62.47 Ry     beta=0.33
     Davidson diagonalization with overlap
     ethr =  1.25E-13,  avg # of iterations =  2.0

     negative rho (up, down):  1.572E-03 0.000E+00


     -----------------------------------------------
     Non-local corr. energy    =       0.13617883 Ry
     -----------------------------------------------


     total cpu time spent up to now is      305.8 secs

     End of self-consistent calculation

          k = 0.0000 0.0000 0.0000 (450127 PWs)   bands (ev):

   -25.6219 -13.5474  -9.6928  -7.6567  -1.4710  -0.1534  -0.0055   0.1333
     0.1428   0.1858   0.2113   0.3025   0.3139   0.4477   0.4675   0.5454
     0.5465   0.5494   0.5598   0.5767   0.5871   0.5880   0.5883   0.7560
     0.7780   0.8642   0.8802   0.9201   0.9280   0.9421   0.9551   1.0767
     1.1136   1.2059   1.2247   1.2632   1.2926   1.3846   1.4174   1.4770

     occupation numbers 
     1.0000   1.0000   1.0000   1.0000   0.0000   0.0000   0.0000   0.0000
     0.0000   0.0000   0.0000   0.0000   0.0000   0.0000   0.0000   0.0000
     0.0000   0.0000   0.0000   0.0000   0.0000   0.0000   0.0000   0.0000
     0.0000   0.0000   0.0000   0.0000   0.0000   0.0000   0.0000   0.0000
     0.0000   0.0000   0.0000   0.0000   0.0000   0.0000   0.0000   0.0000

     highest occupied, lowest unoccupied level (ev):    -7.6567   -1.4710

!    total energy              =     -45.02469387 Ry
     Harris-Foulkes estimate   =     -45.02469387 Ry
     estimated scf accuracy    <          6.6E-13 Ry

     total all-electron energy =      -153.871576 Ry

     The total energy is the sum of the following terms:

     one-electron contribution =     -68.85932240 Ry
     hartree contribution      =      36.11608318 Ry
     xc contribution           =      -9.22869172 Ry
     ewald contribution        =       7.17303113 Ry
     one-center paw contrib.   =     -10.22579406 Ry
      -> PAW hartree energy AE =      27.89631305 Ry
      -> PAW hartree energy PS =     -27.86162855 Ry
      -> PAW xc energy AE      =     -17.90380695 Ry
      -> PAW xc energy PS      =       7.64457354 Ry
      -> total E_H with PAW    =      36.15076769 Ry
      -> total E_XC with PAW   =     -19.48792514 Ry

     convergence has been achieved in  41 iterations

     negative rho (up, down):  1.572E-03 0.000E+00


     -----------------------------------------------
     Non-local corr. energy    =       0.13617883 Ry
     -----------------------------------------------


     Forces acting on atoms (cartesian axes, Ry/au):

     atom    1 type  1   force =    -0.00000111    0.00007677    0.00004240
     atom    2 type  2   force =     0.00000017   -0.00006501   -0.00004810
     atom    3 type  2   force =     0.00000093   -0.00001176    0.00001094
     The non-local contrib.  to forces
     atom    1 type  1   force =     0.02125656   -0.00012243    2.51673802
     atom    2 type  2   force =    -0.00115349   -0.09241872   -0.06537436
     atom    3 type  2   force =     0.00004819    0.09244016   -0.06539097
     The ionic contribution  to forces
     atom    1 type  1   force =    -0.03676477    0.00045076   -4.35669047
     atom    2 type  2   force =     0.03830061    3.06367156    2.17817188
     atom    3 type  2   force =    -0.00153584   -3.06412232    2.17851859
     The local contribution  to forces
     atom    1 type  1   force =     0.01571168   -0.00025240    1.86420188
     atom    2 type  2   force =    -0.03714685   -2.97131800   -2.11284580
     atom    3 type  2   force =     0.00148868    2.97167057   -2.11311687
     The core correction contribution to forces
     atom    1 type  1   force =    -0.00020439    0.00000087   -0.02420796
     atom    2 type  2   force =     0.00000000    0.00000000    0.00000000
     atom    3 type  2   force =     0.00000000    0.00000000    0.00000000
     The Hubbard contrib.    to forces
     atom    1 type  1   force =     0.00000000    0.00000000    0.00000000
     atom    2 type  2   force =     0.00000000    0.00000000    0.00000000
     atom    3 type  2   force =     0.00000000    0.00000000    0.00000000
     The SCF correction term to forces
     atom    1 type  1   force =    -0.00000009   -0.00000003    0.00000094
     atom    2 type  2   force =    -0.00000001    0.00000016    0.00000018
     atom    3 type  2   force =    -0.00000001   -0.00000016    0.00000018

     Total force =     0.000120     Total SCF correction =     0.000001

     Writing output data file H2O_IR.save
 
     init_run     :     44.52s CPU     23.71s WALL (       1 calls)
     electrons    :    547.03s CPU    281.13s WALL (       1 calls)
     forces       :     14.67s CPU      7.59s WALL (       1 calls)

     Called by init_run:
     wfcinit      :      0.76s CPU      0.39s WALL (       1 calls)
     wfcinit:atom :      0.00s CPU      0.00s WALL (       1 calls)
     wfcinit:wfcr :      0.73s CPU      0.37s WALL (       1 calls)
     potinit      :     14.14s CPU      7.08s WALL (       1 calls)

     Called by electrons:
     c_bands      :     82.03s CPU     42.06s WALL (      41 calls)
     sum_band     :     27.59s CPU     13.67s WALL (      41 calls)
     v_of_rho     :    424.91s CPU    217.02s WALL (      42 calls)
     v_h          :      4.73s CPU      2.79s WALL (      42 calls)
     v_xc         :    430.24s CPU    219.28s WALL (      43 calls)
     newd         :      9.06s CPU      6.13s WALL (      42 calls)
     PAW_pot      :      1.50s CPU      1.50s WALL (      42 calls)
     mix_rho      :      8.20s CPU      4.12s WALL (      41 calls)

     Called by c_bands:
     init_us_2    :      0.08s CPU      0.07s WALL (      83 calls)
     cegterg      :     81.91s CPU     41.93s WALL (      41 calls)

     Called by sum_band:
     sum_band:bec :      0.00s CPU      0.00s WALL (      41 calls)
     addusdens    :      8.47s CPU      3.40s WALL (      41 calls)

     Called by *egterg:
     h_psi        :     58.16s CPU     28.53s WALL (     162 calls)
     s_psi        :      0.04s CPU      0.04s WALL (     162 calls)
     g_psi        :      0.02s CPU      0.02s WALL (     120 calls)
     cdiaghg      :      8.11s CPU      5.26s WALL (     161 calls)
     cegterg:over :      3.74s CPU      1.71s WALL (     120 calls)
     cegterg:upda :      0.58s CPU      0.58s WALL (     120 calls)
     cegterg:last :      1.25s CPU      0.23s WALL (      45 calls)
     cdiaghg:chol :      0.16s CPU      0.16s WALL (     161 calls)
     cdiaghg:inve :      0.10s CPU      0.11s WALL (     161 calls)
     cdiaghg:para :      0.12s CPU      0.12s WALL (     322 calls)

     Called by h_psi:
     h_psi:pot    :     58.11s CPU     28.48s WALL (     162 calls)
     h_psi:calbec :      0.12s CPU      0.12s WALL (     162 calls)
     vloc_psi     :     57.95s CPU     28.32s WALL (     162 calls)
     add_vuspsi   :      0.04s CPU      0.04s WALL (     162 calls)

     General routines
     calbec       :      0.16s CPU      0.16s WALL (     207 calls)
     fft          :    231.60s CPU    114.91s WALL (    2829 calls)
     ffts         :      1.60s CPU      0.59s WALL (      83 calls)
     fftw         :     62.29s CPU     30.74s WALL (    9468 calls)
     interpolate  :      8.84s CPU      3.93s WALL (      83 calls)
 
     Parallel routines
     fft_scatter  :    176.09s CPU     93.12s WALL (   12380 calls)

     PAW routines
     PAW_pot      :      1.50s CPU      1.50s WALL (      42 calls)
 
     PWSCF        : 10m12.64s CPU     5m17.26s WALL

 
   This run was terminated on:  14:11: 7   9Feb2026            

=------------------------------------------------------------------------------=
   JOB DONE.
=------------------------------------------------------------------------------=
