
     Program PWSCF v.6.1 starts on 10Feb2026 at 19: 4:31 

     This program is part of the open-source Quantum ESPRESSO suite
     for quantum simulation of materials; please cite
         "P. Giannozzi et al., J. Phys.:Condens. Matter 21 395502 (2009);
          URL http://www.quantum-espresso.org", 
     in publications or presentations arising from this work. More details at
     http://www.quantum-espresso.org/quote

     Parallel version (MPI & OpenMP), running on     480 processor cores
     Number of MPI processes:               240
     Threads/MPI process:                     2
     R & G space division:  proc/nbgrp/npool/nimage =     240
     Reading input from espresso.pwi

     Current dimensions of program PWSCF are:
     Max number of different atomic species (ntypx) = 10
     Max number of k-points (npk) =  40000
     Max angular momentum in pseudopotentials (lmaxx) =  3

     IMPORTANT: XC functional enforced from input :
     Exchange-correlation      = VDW-DF2 ( 1  4 13  0 2 0)
     Any further DFT definition will be discarded
     Please, verify this is what you really want

               file Cu.pbe-dn-kjpaw_psl.1.0.0.UPF: wavefunction(s)  4S 3D renormalized
               file C.pbe-n-kjpaw_psl.1.0.0.UPF: wavefunction(s)  2S 2P renormalized
               file O.pbe-n-kjpaw_psl.1.0.0.UPF: wavefunction(s)  2S 2P renormalized
     Message from routine iosys_1drism:
     default density from MOL file(H2O.tip5p.MOL) is used

     Subspace diagonalization in iterative solution of the eigenvalue problem:
     one sub-group per band group will be used
     ELPA distributed-memory algorithm (size of sub-group: 10* 10 procs)


     Molecule # 1 for H2O read from file:
     /work/gf93/f93007/QE/pseudo/H2O.tip5p.MOL
     Density:
         0.72794769E+02 cell^-1
         0.49533750E-02 bohr^-3
         0.55506881E+02 mol/L
         0.99997200E+00 g/cm^3
     Permittivity:
        78.355300
     Number of atoms:   5
     Atoms:
       #  atom      X (angs)      Y (angs)      Z (angs)      Q (e)         E (kcal/mol)  S (angs)
       1  O/h2o     0.00000000    0.00000000    0.00000000    0.00000000    0.16000000    3.12000000
       2  H/h2o     0.75695000    0.58588000    0.00000000    0.24100000    0.04600000    1.00000000
       3  H/h2o    -0.75695000    0.58588000    0.00000000    0.24100000    0.04600000    1.00000000
       4  L/h2o     0.00000000   -0.40415000    0.57154000   -0.24100000    0.04600000    1.80000000
       5  L/h2o     0.00000000   -0.40415000   -0.57154000   -0.24100000    0.04600000    1.80000000


     Molecule # 2 for K+ read from file:
     /work/gf93/f93007/QE/pseudo/K+.oplsaa.MOL
     Density:
         0.13114549E+01 cell^-1
         0.89238936E-04 bohr^-3
         0.10000000E+01 mol/L
         0.39098300E-01 g/cm^3
     Number of atoms:   1
     Atoms:
       #  atom      X (angs)      Y (angs)      Z (angs)      Q (e)         E (kcal/mol)  S (angs)
       1  K         0.00000000    0.00000000    0.00000000    1.00000000    0.00032800    4.93462800


     Molecule # 3 for OH- read from file:
     /work/gf93/f93007/QE/pseudo/OH-.oplsaa.MOL
     Density:
         0.13114549E+01 cell^-1
         0.89238936E-04 bohr^-3
         0.10000000E+01 mol/L
         0.17007340E-01 g/cm^3
     Number of atoms:   2
     Atoms:
       #  atom      X (angs)      Y (angs)      Z (angs)      Q (e)         E (kcal/mol)  S (angs)
       1  O/oh      0.00000000    0.00000000    0.00000000   -1.30000000    0.25000000    3.20000000
       2  H/oh      0.95300000    0.00000000    0.00000000    0.30000000    0.04600000    1.00000000


     Number of total sites:   8
     Index site -> solvent: 
       1  1  1  1  1  2  3  3
     Index site -> atom (in a solvent): 
       1  2  3  4  5  1  1  2


     Number of unique sites:   6
     Multiplicity of unique site: 
       1  2  2  1  1  1
     Index unique site -> site: 
       1:  1
       2:  2  3
       3:  4  5
       4:  6
       5:  7
       6:  8


     1D-RISM info
     ------------
     closure equation        =           KH
     temperature             =     300.0000  kelvin
     coulomb smearing radius =       2.0000  bohr
     number of solvent sites =            8
     nv * (nv + 1) / 2       =           36
     number of grids         =         8345
     maximum of R-space      =     999.8802  bohr
     maximum of G-space      =      26.2150  bohr^-1
     #R-grids in local       =           66
     #G-grids in local       =           66
     number of iterations    =       100000
     convergence threshold   =      1.0E-08
     Gaussian width of bonds =       0.2530  bohr
     size of MDIIS           =           20
     step of MDIIS           =       0.1000
     number of processes     =          128


     Radial FFT:
     number of radial grids   =         8345
     number of FFT grids      =        16689
     good number of FFT grids =           -1
     R-space grids:
       0.00000000E+00  0.11983223E+00  0.23966447E+00  0.35949670E+00  0.47932894E+00
       0.59916117E+00  0.71899341E+00  0.83882564E+00  0.95865788E+00  0.10784901E+01
       ..............  ..............  ..............  ..............  ..............
       0.99880168E+03  0.99892151E+03  0.99904134E+03  0.99916117E+03  0.99928101E+03
       0.99940084E+03  0.99952067E+03  0.99964050E+03  0.99976034E+03  0.99988017E+03
     G-space grids:
       0.00000000E+00  0.31417809E-02  0.62835618E-02  0.94253427E-02  0.12567124E-01
       0.15708904E-01  0.18850685E-01  0.21992466E-01  0.25134247E-01  0.28276028E-01
       ..............  ..............  ..............  ..............  ..............
       0.26186744E+02  0.26189886E+02  0.26193027E+02  0.26196169E+02  0.26199311E+02
       0.26202453E+02  0.26205594E+02  0.26208736E+02  0.26211878E+02  0.26215020E+02


     MPI for site:
     number of site groups     =          128
     #procs in a site group    =            1
     this proc in a site group =            0
     the root in a site group  =            0
     this site group           =            0
     inter-site group comm.    =           20
     intra-site group comm.    =            2
     total number of sites     =           36
     starting index of sites   =            1
     ending index of sites     =            1


     MPI for task:
     #procs in a task group    =          128
     this proc in a task group =            0
     the root in a task group  =            0
     task group comm.          =           20
     total number of vectors   =         8345
     starting index of vectors =            1
     ending index of vectors   =           66
     lengths of vectors        = 
        66   66   66   66   66   66   66   66   66   66
        66   66   66   66   66   66   66   66   66   66
        66   66   66   66   66   65   65   65   65   65
        65   65   65   65   65   65   65   65   65   65
        65   65   65   65   65   65   65   65   65   65
        65   65   65   65   65   65   65   65   65   65
        65   65   65   65   65   65   65   65   65   65
        65   65   65   65   65   65   65   65   65   65
        65   65   65   65   65   65   65   65   65   65
        65   65   65   65   65   65   65   65   65   65
        65   65   65   65   65   65   65   65   65   65
        65   65   65   65   65   65   65   65   65   65
        65   65   65   65   65   65   65   65
     displacement of vectors   = 
         0   66  132  198  264  330  396  462  528  594
       660  726  792  858  924  990 1056 1122 1188 1254
      1320 1386 1452 1518 1584 1650 1715 1780 1845 1910
      1975 2040 2105 2170 2235 2300 2365 2430 2495 2560
      2625 2690 2755 2820 2885 2950 3015 3080 3145 3210
      3275 3340 3405 3470 3535 3600 3665 3730 3795 3860
      3925 3990 4055 4120 4185 4250 4315 4380 4445 4510
      4575 4640 4705 4770 4835 4900 4965 5030 5095 5160
      5225 5290 5355 5420 5485 5550 5615 5680 5745 5810
      5875 5940 6005 6070 6135 6200 6265 6330 6395 6460
      6525 6590 6655 6720 6785 6850 6915 6980 7045 7110
      7175 7240 7305 7370 7435 7500 7565 7630 7695 7760
      7825 7890 7955 8020 8085 8150 8215 8280


     Correlation function is read from file


     1D-RISM Calculation

     iter. #     1  RMS(g-h-1)= 9.995E-09  nbox=  0  T=  300.00K

     End of 1D-RISM calculation


     convergence has been achieved in     1 iterations


     Chemical potential of solvation

     H2O        H2O        Closure      0.106068E+01 kcal/mol
                           GaussFluct  -0.737993E+01 kcal/mol

                K+         Closure     -0.288345E+00 kcal/mol
                           GaussFluct  -0.358438E+00 kcal/mol

                OH-        Closure     -0.764259E+00 kcal/mol
                           GaussFluct  -0.855991E+00 kcal/mol

                Total      Closure      0.808077E-02 kcal/mol
                           GaussFluct  -0.859435E+01 kcal/mol

     K+         H2O        Closure     -0.160051E+02 kcal/mol
                           GaussFluct  -0.198958E+02 kcal/mol

                K+         Closure      0.351561E+06 kcal/mol
                           GaussFluct   0.351561E+06 kcal/mol

                OH-        Closure     -0.351612E+06 kcal/mol
                           GaussFluct  -0.351612E+06 kcal/mol

                Total      Closure     -0.668098E+02 kcal/mol
                           GaussFluct  -0.707592E+02 kcal/mol

     OH-        H2O        Closure     -0.424217E+02 kcal/mol
                           GaussFluct  -0.475134E+02 kcal/mol

                K+         Closure     -0.351612E+06 kcal/mol
                           GaussFluct  -0.351612E+06 kcal/mol

                OH-        Closure      0.351561E+06 kcal/mol
                           GaussFluct   0.351561E+06 kcal/mol

                Total      Closure     -0.934347E+02 kcal/mol
                           GaussFluct  -0.986502E+02 kcal/mol

 
     Parallelization info
     --------------------
     sticks:   dense  smooth     PW     G-vecs:    dense   smooth      PW
     Min          40      16      4                16136     4064     568
     Max          41      17      5                16171     4100     615
     Sum        9661    3865   1057              3875677   980529  140539
 

     Title: 
     Cu-vib                                                                     


     bravais-lattice index     =            0
     lattice parameter (alat)  =      14.9832  a.u.
     unit-cell volume          =   14695.9939 (a.u.)^3
     number of atoms/cell      =           38
     number of atomic types    =            3
     number of electrons       =       406.00
     number of Kohn-Sham states=          244
     kinetic-energy cutoff     =      62.4738  Ry
     charge density cutoff     =     624.7385  Ry
     convergence threshold     =      7.3E-12
     mixing beta               =       0.3333
     number of iterations used =           12  plain     mixing
     Exchange-correlation      = VDW-DF2 ( 1  4 13  0 2 0)

     Effective Screening Medium Method
     =================================
     Boundary Conditions: Vacuum-Slab-Vacuum
     total charge in unit cell        =   0.0000
     grid points for fit at edges     =        4 
 

     celldm(1)=  14.983209  celldm(2)=   0.000000  celldm(3)=   0.000000
     celldm(4)=   0.000000  celldm(5)=   0.000000  celldm(6)=   0.000000

     crystal axes: (cart. coord. in units of alat)
               a(1) = (   1.000000   0.000000   0.000000 )  
               a(2) = (   0.500000   0.866025   0.000000 )  
               a(3) = (   0.000000   0.000000   5.044917 )  

     reciprocal axes: (cart. coord. in units 2 pi/alat)
               b(1) = (  1.000000 -0.577351  0.000000 )  
               b(2) = (  0.000000  1.154701  0.000000 )  
               b(3) = (  0.000000  0.000000  0.198219 )  


     PseudoPot. # 1 for Cu read from file:
     /work/gf93/f93007/QE/pseudo/Cu.pbe-dn-kjpaw_psl.1.0.0.UPF
     MD5 check sum: 67c40f9e1593dc2d139023e70404cc2a
     Pseudo is Projector augmented-wave + core cor, Zval = 11.0
     Generated using "atomic" code by A. Dal Corso  v.6.1 svn rev. 13369
     Shape of augmentation charge: PSQ
     Using radial grid of 1199 points,  6 beta functions with: 
                l(1) =   0
                l(2) =   0
                l(3) =   1
                l(4) =   1
                l(5) =   2
                l(6) =   2
     Q(r) pseudized with 0 coefficients 


     PseudoPot. # 2 for  C read from file:
     /work/gf93/f93007/QE/pseudo/C.pbe-n-kjpaw_psl.1.0.0.UPF
     MD5 check sum: 92a742b3ac0ce1af44b5aa3f9352ca21
     Pseudo is Projector augmented-wave + core cor, Zval =  4.0
     Generated using "atomic" code by A. Dal Corso  v.6.1 svn rev. 13369
     Shape of augmentation charge: PSQ
     Using radial grid of 1073 points,  4 beta functions with: 
                l(1) =   0
                l(2) =   0
                l(3) =   1
                l(4) =   1
     Q(r) pseudized with 0 coefficients 


     PseudoPot. # 3 for  O read from file:
     /work/gf93/f93007/QE/pseudo/O.pbe-n-kjpaw_psl.1.0.0.UPF
     MD5 check sum: c61d840054b6bba219e553541e327118
     Pseudo is Projector augmented-wave + core cor, Zval =  6.0
     Generated using "atomic" code by A. Dal Corso  v.6.1 svn rev. 13369
     Shape of augmentation charge: PSQ
     Using radial grid of 1095 points,  4 beta functions with: 
                l(1) =   0
                l(2) =   0
                l(3) =   1
                l(4) =   1
     Q(r) pseudized with 0 coefficients 


     vdW kernel table read from file vdW_kernel_table
     MD5 check sum: 6d69797d2e858e93e031fb7d16d30e50

     atomic species   valence    mass     pseudopotential
        Cu            11.00    63.54600     Cu( 1.00)
        C              4.00    12.01100      C( 1.00)
        O              6.00    15.99900      O( 1.00)

     No symmetry found


                                    s                        frac. trans.

      isym =  1     identity                                     

 cryst.   s( 1) = (     1          0          0      )
                  (     0          1          0      )
                  (     0          0          1      )

 cart.    s( 1) = (  1.0000000  0.0000000  0.0000000 )
                  (  0.0000000  1.0000000  0.0000000 )
                  (  0.0000000  0.0000000  1.0000000 )


   Cartesian axes

     site n.     atom                  positions (alat units)
         1           Cu  tau(   1) = (   0.0000000   0.0000000  -0.8248888  )
         2           Cu  tau(   2) = (   0.3333333   0.0000000  -0.8248888  )
         3           Cu  tau(   3) = (   0.6666667   0.0000000  -0.8248888  )
         4           Cu  tau(   4) = (   0.1666667   0.2886751  -0.8248888  )
         5           Cu  tau(   5) = (   0.5000000   0.2886751  -0.8248888  )
         6           Cu  tau(   6) = (   0.8333333   0.2886751  -0.8248888  )
         7           Cu  tau(   7) = (   0.3333333   0.5773503  -0.8248888  )
         8           Cu  tau(   8) = (   0.6666667   0.5773503  -0.8248888  )
         9           Cu  tau(   9) = (   1.0000000   0.5773503  -0.8248888  )
        10           Cu  tau(  10) = (   0.1679527   0.0969677  -0.5550278  )
        11           Cu  tau(  11) = (   0.5000001   0.0963555  -0.5546924  )
        12           Cu  tau(  12) = (   0.8320475   0.0969677  -0.5550278  )
        13           Cu  tau(  13) = (   0.3334463   0.3848350  -0.5546924  )
        14           Cu  tau(  14) = (   0.6665540   0.3848351  -0.5546924  )
        15           Cu  tau(  15) = (   1.0000000   0.3851225  -0.5554971  )
        16           Cu  tau(  16) = (   0.5000002   0.6720902  -0.5550277  )
        17           Cu  tau(  17) = (   0.8335259   0.6734639  -0.5554970  )
        18           Cu  tau(  18) = (   1.1664742   0.6734639  -0.5554970  )
        19           Cu  tau(  19) = (   0.0000002   0.1919045  -0.2895402  )
        20           Cu  tau(  20) = (   0.3359748   0.1939752  -0.2811846  )
        21           Cu  tau(  21) = (   0.6640256   0.1939752  -0.2811846  )
        22           Cu  tau(  22) = (   0.1667941   0.4810516  -0.2872685  )
        23           Cu  tau(  23) = (   0.5000002   0.4780753  -0.2811846  )
        24           Cu  tau(  24) = (   0.8332061   0.4810517  -0.2872684  )
        25           Cu  tau(  25) = (   0.3338062   0.7700731  -0.2895404  )
        26           Cu  tau(  26) = (   0.6661942   0.7700731  -0.2895403  )
        27           Cu  tau(  27) = (   1.0000001   0.7699472  -0.2872685  )
        28           Cu  tau(  28) = (   0.0000000   0.0000002  -0.0207473  )
        29           Cu  tau(  29) = (   0.3317716  -0.0034666  -0.0198287  )
        30           Cu  tau(  30) = (   0.6682285  -0.0034665  -0.0198288  )
        31           Cu  tau(  31) = (   0.1628835   0.2890560  -0.0198289  )
        32           Cu  tau(  32) = (   0.5000001   0.2886752   0.0000000  )
        33           Cu  tau(  33) = (   0.8371164   0.2890560  -0.0198289  )
        34           Cu  tau(  34) = (   0.3311120   0.5804359  -0.0198289  )
        35           Cu  tau(  35) = (   0.6688881   0.5804359  -0.0198288  )
        36           Cu  tau(  36) = (   1.0000000   0.5773501  -0.0191733  )
        37           C   tau(  37) = (   0.4999994   0.2886747   0.2397149  )
        38           O   tau(  38) = (   0.4999989   0.2899356   0.3848034  )

   Crystallographic axes

     site n.     atom                  positions (cryst. coord.)
         1           Cu  tau(   1) = (  0.0000000  0.0000000 -0.1635089  )
         2           Cu  tau(   2) = (  0.3333333  0.0000000 -0.1635089  )
         3           Cu  tau(   3) = (  0.6666667  0.0000000 -0.1635089  )
         4           Cu  tau(   4) = ( -0.0000001  0.3333335 -0.1635089  )
         5           Cu  tau(   5) = (  0.3333333  0.3333335 -0.1635089  )
         6           Cu  tau(   6) = (  0.6666666  0.3333335 -0.1635089  )
         7           Cu  tau(   7) = ( -0.0000002  0.6666670 -0.1635089  )
         8           Cu  tau(   8) = (  0.3333332  0.6666670 -0.1635089  )
         9           Cu  tau(   9) = (  0.6666665  0.6666670 -0.1635089  )
        10           Cu  tau(  10) = (  0.1119684  0.1119687 -0.1100172  )
        11           Cu  tau(  11) = (  0.4443691  0.1112618 -0.1099508  )
        12           Cu  tau(  12) = (  0.7760631  0.1119687 -0.1100172  )
        13           Cu  tau(  13) = (  0.1112615  0.4443694 -0.1099508  )
        14           Cu  tau(  14) = (  0.4443692  0.4443695 -0.1099507  )
        15           Cu  tau(  15) = (  0.7776494  0.4447013 -0.1101102  )
        16           Cu  tau(  16) = (  0.1119685  0.7760633 -0.1100172  )
        17           Cu  tau(  17) = (  0.4447012  0.7776495 -0.1101102  )
        18           Cu  tau(  18) = (  0.7776494  0.7776495 -0.1101102  )
        19           Cu  tau(  19) = ( -0.1107960  0.2215923 -0.0573925  )
        20           Cu  tau(  20) = (  0.2239831  0.2239834 -0.0557362  )
        21           Cu  tau(  21) = (  0.5520338  0.2239834 -0.0557362  )
        22           Cu  tau(  22) = ( -0.1109413  0.5554709 -0.0569422  )
        23           Cu  tau(  23) = (  0.2239831  0.5520341 -0.0557362  )
        24           Cu  tau(  24) = (  0.5554707  0.5554709 -0.0569421  )
        25           Cu  tau(  25) = ( -0.1107959  0.8892042 -0.0573925  )
        26           Cu  tau(  26) = (  0.2215921  0.8892042 -0.0573925  )
        27           Cu  tau(  27) = (  0.5554707  0.8890589 -0.0569422  )
        28           Cu  tau(  28) = ( -0.0000001  0.0000002 -0.0041125  )
        29           Cu  tau(  29) = (  0.3337730 -0.0040029 -0.0039304  )
        30           Cu  tau(  30) = (  0.6702299 -0.0040028 -0.0039305  )
        31           Cu  tau(  31) = ( -0.0040031  0.3337733 -0.0039305  )
        32           Cu  tau(  32) = (  0.3333333  0.3333336  0.0000000  )
        33           Cu  tau(  33) = (  0.6702298  0.3337733 -0.0039305  )
        34           Cu  tau(  34) = ( -0.0040030  0.6702300 -0.0039305  )
        35           Cu  tau(  35) = (  0.3337731  0.6702300 -0.0039305  )
        36           Cu  tau(  36) = (  0.6666666  0.6666667 -0.0038005  )
        37           C   tau(  37) = (  0.3333329  0.3333330  0.0475161  )
        38           O   tau(  38) = (  0.3326044  0.3347890  0.0762755  )

     number of k points=    34  Marzari-Vanderbilt smearing, width (Ry)=  0.0073
                       cart. coord. in units 2pi/alat
        k(    1) = (   0.0000000   0.0000000   0.0000000), wk =   0.0312500
        k(    2) = (   0.0000000   0.1443376   0.0000000), wk =   0.0625000
        k(    3) = (   0.0000000   0.2886753   0.0000000), wk =   0.0625000
        k(    4) = (   0.0000000   0.4330129   0.0000000), wk =   0.0625000
        k(    5) = (   0.0000000  -0.5773505   0.0000000), wk =   0.0312500
        k(    6) = (   0.1250000  -0.0721688   0.0000000), wk =   0.0625000
        k(    7) = (   0.1250000   0.0721688   0.0000000), wk =   0.0625000
        k(    8) = (   0.1250000   0.2165065   0.0000000), wk =   0.0625000
        k(    9) = (   0.1250000   0.3608441   0.0000000), wk =   0.0625000
        k(   10) = (   0.1250000  -0.6495194   0.0000000), wk =   0.0625000
        k(   11) = (   0.1250000  -0.5051817   0.0000000), wk =   0.0625000
        k(   12) = (   0.1250000  -0.3608441   0.0000000), wk =   0.0625000
        k(   13) = (   0.1250000  -0.2165065   0.0000000), wk =   0.0625000
        k(   14) = (   0.2500000  -0.1443376   0.0000000), wk =   0.0625000
        k(   15) = (   0.2500000   0.0000000   0.0000000), wk =   0.0625000
        k(   16) = (   0.2500000   0.1443376   0.0000000), wk =   0.0625000
        k(   17) = (   0.2500000   0.2886753   0.0000000), wk =   0.0625000
        k(   18) = (   0.2500000  -0.7216882   0.0000000), wk =   0.0625000
        k(   19) = (   0.2500000  -0.5773505   0.0000000), wk =   0.0625000
        k(   20) = (   0.2500000  -0.4330129   0.0000000), wk =   0.0625000
        k(   21) = (   0.2500000  -0.2886753   0.0000000), wk =   0.0625000
        k(   22) = (   0.3750000  -0.2165065   0.0000000), wk =   0.0625000
        k(   23) = (   0.3750000  -0.0721688   0.0000000), wk =   0.0625000
        k(   24) = (   0.3750000   0.0721688   0.0000000), wk =   0.0625000
        k(   25) = (   0.3750000   0.2165065   0.0000000), wk =   0.0625000
        k(   26) = (   0.3750000  -0.7938570   0.0000000), wk =   0.0625000
        k(   27) = (   0.3750000  -0.6495194   0.0000000), wk =   0.0625000
        k(   28) = (   0.3750000  -0.5051817   0.0000000), wk =   0.0625000
        k(   29) = (   0.3750000  -0.3608441   0.0000000), wk =   0.0625000
        k(   30) = (  -0.5000000   0.2886753   0.0000000), wk =   0.0312500
        k(   31) = (  -0.5000000   0.4330129   0.0000000), wk =   0.0625000
        k(   32) = (  -0.5000000   0.5773505   0.0000000), wk =   0.0625000
        k(   33) = (  -0.5000000   0.7216882   0.0000000), wk =   0.0625000
        k(   34) = (  -0.5000000  -0.2886753   0.0000000), wk =   0.0312500

                       cryst. coord.
        k(    1) = (   0.0000000   0.0000000   0.0000000), wk =   0.0312500
        k(    2) = (   0.0000000   0.1250000   0.0000000), wk =   0.0625000
        k(    3) = (   0.0000000   0.2500000   0.0000000), wk =   0.0625000
        k(    4) = (   0.0000000   0.3750000   0.0000000), wk =   0.0625000
        k(    5) = (   0.0000000  -0.5000000   0.0000000), wk =   0.0312500
        k(    6) = (   0.1250000   0.0000000   0.0000000), wk =   0.0625000
        k(    7) = (   0.1250000   0.1250000   0.0000000), wk =   0.0625000
        k(    8) = (   0.1250000   0.2500000   0.0000000), wk =   0.0625000
        k(    9) = (   0.1250000   0.3750000   0.0000000), wk =   0.0625000
        k(   10) = (   0.1250000  -0.5000000   0.0000000), wk =   0.0625000
        k(   11) = (   0.1250000  -0.3750000   0.0000000), wk =   0.0625000
        k(   12) = (   0.1250000  -0.2500000   0.0000000), wk =   0.0625000
        k(   13) = (   0.1250000  -0.1250000   0.0000000), wk =   0.0625000
        k(   14) = (   0.2500000   0.0000000   0.0000000), wk =   0.0625000
        k(   15) = (   0.2500000   0.1250000   0.0000000), wk =   0.0625000
        k(   16) = (   0.2500000   0.2500000   0.0000000), wk =   0.0625000
        k(   17) = (   0.2500000   0.3750000   0.0000000), wk =   0.0625000
        k(   18) = (   0.2500000  -0.5000000   0.0000000), wk =   0.0625000
        k(   19) = (   0.2500000  -0.3750000   0.0000000), wk =   0.0625000
        k(   20) = (   0.2500000  -0.2500000   0.0000000), wk =   0.0625000
        k(   21) = (   0.2500000  -0.1250000   0.0000000), wk =   0.0625000
        k(   22) = (   0.3750000   0.0000000   0.0000000), wk =   0.0625000
        k(   23) = (   0.3750000   0.1250000   0.0000000), wk =   0.0625000
        k(   24) = (   0.3750000   0.2500000   0.0000000), wk =   0.0625000
        k(   25) = (   0.3750000   0.3750000   0.0000000), wk =   0.0625000
        k(   26) = (   0.3750000  -0.5000000   0.0000000), wk =   0.0625000
        k(   27) = (   0.3750000  -0.3750000   0.0000000), wk =   0.0625000
        k(   28) = (   0.3750000  -0.2500000   0.0000000), wk =   0.0625000
        k(   29) = (   0.3750000  -0.1250000   0.0000000), wk =   0.0625000
        k(   30) = (  -0.5000000   0.0000000   0.0000000), wk =   0.0312500
        k(   31) = (  -0.5000000   0.1250000   0.0000000), wk =   0.0625000
        k(   32) = (  -0.5000000   0.2500000   0.0000000), wk =   0.0625000
        k(   33) = (  -0.5000000   0.3750000   0.0000000), wk =   0.0625000
        k(   34) = (  -0.5000000  -0.5000000   0.0000000), wk =   0.0312500

     Dense  grid:  3875677 G-vectors     FFT dimensions: ( 120, 120, 625)

     Smooth grid:   980529 G-vectors     FFT dimensions: (  75,  75, 384)

     Estimated max dynamical RAM per process >     140.99MB

     Estimated total allocated dynamical RAM >   33838.49MB

     Solute:
       # atom     E (kcal/mol)  S (angs)
       1  Cu      1.00000000    3.00000000    given
       2  Cu      1.00000000    3.00000000    given
       3  Cu      1.00000000    3.00000000    given
       4  Cu      1.00000000    3.00000000    given
       5  Cu      1.00000000    3.00000000    given
       6  Cu      1.00000000    3.00000000    given
       7  Cu      1.00000000    3.00000000    given
       8  Cu      1.00000000    3.00000000    given
       9  Cu      1.00000000    3.00000000    given
      10  Cu      1.00000000    3.00000000    given
      11  Cu      1.00000000    3.00000000    given
      12  Cu      1.00000000    3.00000000    given
      13  Cu      1.00000000    3.00000000    given
      14  Cu      1.00000000    3.00000000    given
      15  Cu      1.00000000    3.00000000    given
      16  Cu      1.00000000    3.00000000    given
      17  Cu      1.00000000    3.00000000    given
      18  Cu      1.00000000    3.00000000    given
      19  Cu      1.00000000    3.00000000    given
      20  Cu      1.00000000    3.00000000    given
      21  Cu      1.00000000    3.00000000    given
      22  Cu      1.00000000    3.00000000    given
      23  Cu      1.00000000    3.00000000    given
      24  Cu      1.00000000    3.00000000    given
      25  Cu      1.00000000    3.00000000    given
      26  Cu      1.00000000    3.00000000    given
      27  Cu      1.00000000    3.00000000    given
      28  Cu      1.00000000    3.00000000    given
      29  Cu      1.00000000    3.00000000    given
      30  Cu      1.00000000    3.00000000    given
      31  Cu      1.00000000    3.00000000    given
      32  Cu      1.00000000    3.00000000    given
      33  Cu      1.00000000    3.00000000    given
      34  Cu      1.00000000    3.00000000    given
      35  Cu      1.00000000    3.00000000    given
      36  Cu      1.00000000    3.00000000    given
      37  C       0.07000000    3.55000000    OPLS-AA
      38  O       0.17000000    3.00000000    OPLS-AA

     Wall:
       Density =    0.01000000  bohr^-3
       E       =    0.10000000  kcal/mol
       S       =    4.00000000  angs

     L.J. cutoff radius =       5.0000  S


     Laue-RISM info
     --------------
     closure equation        =           KH
     temperature             =     300.0000  kelvin
     coulomb smearing radius =       2.0000  bohr
     number of solvent sites =            6
     solvent sites           =    O/h2o   H/h2o   L/h2o       K
     solvent sites           =     O/oh    H/oh
     #R-grids in local       =        11250
     #Rz-grids (unit-cell)   =          384
     #Rz-grids (expand-cell) =          720
     #G-grids in local       =         4081
     #Gxy-grids in local     =           17
     #Gxy-shells in local    =           17
     number of iterations    =        10000
     convergence threshold   =      1.0E-06
     convergence level       =       0.8000
     size of MDIIS           =           20
     step of MDIIS           =       0.8000
     solvent cutoff          =     249.8954  Ry
     Custom grid:   980529 G-vectors     FFT dimensions: (  75,  75, 384)

     Boundary Conditions        : Vacuum-Slab-Solvent
     unit-cell (in bohr)        : [ -37.794523  37.794523]
     expand-cell (in bohr)      : [ -37.794523 103.934937]
     solvent of right (in bohr) : [  -8.267552 103.934937]
     buffer  of right (in bohr) : [ -18.109875  -8.267552]
     Gxy = 0 of right (in bohr) : [ -18.109875  82.872365]
     repulsive wall (in bohr)   : [  -Infinity -10.486273]
     reference of potential     : right-hand side
     #grids to fit at edges of unit-cell =    4
     Laue grid:     3865 Gxy-vectors     FFT dimensions: (  75,  75, 720)


     MPI for site:
     number of site groups     =            1
     #procs in a site group    =          240
     this proc in a site group =            0
     the root in a site group  =            0
     this site group           =            0
     inter-site group comm.    =           23
     intra-site group comm.    =            5
     total number of sites     =            6
     starting index of sites   =            1
     ending index of sites     =            6


     MPI for task:
     #procs in a task group    =          240
     this proc in a task group =            0
     the root in a task group  =            0
     task group comm.          =            5


     Initial potential from superposition of free atoms
     Check: negative starting charge=   -0.001648

     starting charge  405.99177, renormalised to  406.00000

     Correlation function is read from file


     negative rho (up, down):  1.648E-03 0.000E+00


     %%%%%%%%%%%%%%%%%%%%%%%%%%%%%%%%%%%%%%%%%%%%%%%%%%%%%%%%%%%%%%%%%%%%%%%%
     %                                                                      %
     % You are using vdW-DF, which was implemented by the Thonhauser group. %
     % Please cite the following two papers that made this development      %
     % possible and the two reviews that describe the various versions:     %
     %                                                                      %
     %   T. Thonhauser et al., PRL 115, 136402 (2015).                      %
     %   T. Thonhauser et al., PRB 76, 125112 (2007).                       %
     %   K. Berland et al., Rep. Prog. Phys. 78, 066501 (2015).             %
     %   D.C. Langreth et al., J. Phys.: Condens. Matter 21, 084203 (2009). %
     %                                                                      %
     %                                                                      %
     % If you are calculating the stress with vdW-DF, please also cite:     %
     %                                                                      %
     %   R. Sabatini et al., J. Phys.: Condens. Matter 24, 424209 (2012).   %
     %                                                                      %
     %%%%%%%%%%%%%%%%%%%%%%%%%%%%%%%%%%%%%%%%%%%%%%%%%%%%%%%%%%%%%%%%%%%%%%%%


     Carrying out vdW-DF run using the following parameters:
     Nqs    =  20  Npoints =  1024  r_max =  100.000
     q_mesh =  0.00001000  0.04494208  0.09755937  0.15916263
               0.23128650  0.31572767  0.41458969  0.53033537
               0.66584808  0.82450364  1.01025438  1.22772762
               1.48234092  1.78043706  2.12944203  2.53805004
               3.01644009  3.57652955  4.23227104  5.00000000


     -----------------------------------------------
     Non-local corr. energy    =      22.28442056 Ry
     -----------------------------------------------


     Laue-RISM Calculation

     convergence threshold    = 6.310E-06
     iter. #     1  RMS(g-h-1)= 7.643E-02  nbox=  0
     iter. #     2  RMS(g-h-1)= 5.874E-02  nbox=  1
     iter. #     3  RMS(g-h-1)= 3.556E-02  nbox=  2
     iter. #     4  RMS(g-h-1)= 1.408E-02  nbox=  3
     iter. #     5  RMS(g-h-1)= 1.187E-02  nbox=  4
     iter. #     6  RMS(g-h-1)= 9.124E-03  nbox=  5
     iter. #     7  RMS(g-h-1)= 7.403E-03  nbox=  6
     iter. #     8  RMS(g-h-1)= 6.831E-03  nbox=  7
     iter. #     9  RMS(g-h-1)= 6.414E-03  nbox=  8
     iter. #    10  RMS(g-h-1)= 5.886E-03  nbox=  9
     iter. #    11  RMS(g-h-1)= 5.505E-03  nbox= 10
     iter. #    12  RMS(g-h-1)= 5.187E-03  nbox= 11
     iter. #    13  RMS(g-h-1)= 4.936E-03  nbox= 12
     iter. #    14  RMS(g-h-1)= 4.569E-03  nbox= 13
     iter. #    15  RMS(g-h-1)= 4.227E-03  nbox= 14
     iter. #    16  RMS(g-h-1)= 4.005E-03  nbox= 15
     iter. #    17  RMS(g-h-1)= 3.718E-03  nbox= 16
     iter. #    18  RMS(g-h-1)= 3.293E-03  nbox= 17
     iter. #    19  RMS(g-h-1)= 2.922E-03  nbox= 18
     iter. #    20  RMS(g-h-1)= 2.725E-03  nbox= 19
     iter. #    21  RMS(g-h-1)= 2.358E-03  nbox= 20
     iter. #    22  RMS(g-h-1)= 2.115E-03  nbox= 20
     iter. #    23  RMS(g-h-1)= 2.002E-03  nbox= 20
     iter. #    24  RMS(g-h-1)= 1.877E-03  nbox= 20
     iter. #    25  RMS(g-h-1)= 1.745E-03  nbox= 20
     iter. #    26  RMS(g-h-1)= 1.661E-03  nbox= 20
     iter. #    27  RMS(g-h-1)= 1.610E-03  nbox= 20
     iter. #    28  RMS(g-h-1)= 1.544E-03  nbox= 20
     iter. #    29  RMS(g-h-1)= 1.497E-03  nbox= 20
     iter. #    30  RMS(g-h-1)= 1.441E-03  nbox= 20
     iter. #    31  RMS(g-h-1)= 1.395E-03  nbox= 20
     iter. #    32  RMS(g-h-1)= 1.357E-03  nbox= 20
     iter. #    33  RMS(g-h-1)= 1.308E-03  nbox= 20
     iter. #    34  RMS(g-h-1)= 1.247E-03  nbox= 20
     iter. #    35  RMS(g-h-1)= 1.224E-03  nbox= 20
     iter. #    36  RMS(g-h-1)= 1.156E-03  nbox= 20
     iter. #    37  RMS(g-h-1)= 1.106E-03  nbox= 20
     iter. #    38  RMS(g-h-1)= 1.068E-03  nbox= 20
     iter. #    39  RMS(g-h-1)= 1.051E-03  nbox= 20
     iter. #    40  RMS(g-h-1)= 1.001E-03  nbox= 20
     iter. #    41  RMS(g-h-1)= 9.716E-04  nbox= 20
     iter. #    42  RMS(g-h-1)= 9.641E-04  nbox= 20
     iter. #    43  RMS(g-h-1)= 9.307E-04  nbox= 20
     iter. #    44  RMS(g-h-1)= 9.124E-04  nbox= 20
     iter. #    45  RMS(g-h-1)= 9.022E-04  nbox= 20
     iter. #    46  RMS(g-h-1)= 8.890E-04  nbox= 20
     iter. #    47  RMS(g-h-1)= 8.848E-04  nbox= 20
     iter. #    48  RMS(g-h-1)= 8.593E-04  nbox= 20
     iter. #    49  RMS(g-h-1)= 8.505E-04  nbox= 20
     iter. #    50  RMS(g-h-1)= 8.458E-04  nbox= 20
     iter. #    51  RMS(g-h-1)= 8.304E-04  nbox= 20
     iter. #    52  RMS(g-h-1)= 8.261E-04  nbox= 20
     iter. #    53  RMS(g-h-1)= 8.214E-04  nbox=  2
     iter. #    54  RMS(g-h-1)= 8.063E-04  nbox=  3
     iter. #    55  RMS(g-h-1)= 7.957E-04  nbox=  4
     iter. #    56  RMS(g-h-1)= 7.785E-04  nbox=  5
     iter. #    57  RMS(g-h-1)= 7.651E-04  nbox=  6
     iter. #    58  RMS(g-h-1)= 7.607E-04  nbox=  7
     iter. #    59  RMS(g-h-1)= 7.423E-04  nbox=  8
     iter. #    60  RMS(g-h-1)= 7.410E-04  nbox=  9
     iter. #    61  RMS(g-h-1)= 7.251E-04  nbox= 10
     iter. #    62  RMS(g-h-1)= 7.152E-04  nbox= 11
     iter. #    63  RMS(g-h-1)= 7.024E-04  nbox= 12
     iter. #    64  RMS(g-h-1)= 6.902E-04  nbox= 13
     iter. #    65  RMS(g-h-1)= 6.919E-04  nbox= 14
     iter. #    66  RMS(g-h-1)= 6.711E-04  nbox= 15
     iter. #    67  RMS(g-h-1)= 6.588E-04  nbox= 16
     iter. #    68  RMS(g-h-1)= 6.423E-04  nbox= 17
     iter. #    69  RMS(g-h-1)= 6.388E-04  nbox=  2
     iter. #    70  RMS(g-h-1)= 6.209E-04  nbox=  3
     iter. #    71  RMS(g-h-1)= 6.092E-04  nbox=  4
     iter. #    72  RMS(g-h-1)= 5.986E-04  nbox=  5
     iter. #    73  RMS(g-h-1)= 5.929E-04  nbox=  6
     iter. #    74  RMS(g-h-1)= 5.825E-04  nbox=  7
     iter. #    75  RMS(g-h-1)= 5.678E-04  nbox=  8
     iter. #    76  RMS(g-h-1)= 5.675E-04  nbox=  9
     iter. #    77  RMS(g-h-1)= 5.419E-04  nbox= 10
     iter. #    78  RMS(g-h-1)= 5.392E-04  nbox= 11
     iter. #    79  RMS(g-h-1)= 5.230E-04  nbox= 12
     iter. #    80  RMS(g-h-1)= 5.054E-04  nbox= 13
     iter. #    81  RMS(g-h-1)= 4.934E-04  nbox= 14
     iter. #    82  RMS(g-h-1)= 4.792E-04  nbox= 15
     iter. #    83  RMS(g-h-1)= 4.667E-04  nbox= 16
     iter. #    84  RMS(g-h-1)= 4.544E-04  nbox= 17
     iter. #    85  RMS(g-h-1)= 4.524E-04  nbox=  2
     iter. #    86  RMS(g-h-1)= 4.426E-04  nbox=  3
     iter. #    87  RMS(g-h-1)= 4.355E-04  nbox=  4
     iter. #    88  RMS(g-h-1)= 4.349E-04  nbox=  5
     iter. #    89  RMS(g-h-1)= 4.276E-04  nbox=  6
     iter. #    90  RMS(g-h-1)= 4.231E-04  nbox=  7
     iter. #    91  RMS(g-h-1)= 4.171E-04  nbox=  8
     iter. #    92  RMS(g-h-1)= 4.108E-04  nbox=  9
     iter. #    93  RMS(g-h-1)= 4.080E-04  nbox= 10
     iter. #    94  RMS(g-h-1)= 4.002E-04  nbox= 11
     iter. #    95  RMS(g-h-1)= 3.903E-04  nbox= 12
     iter. #    96  RMS(g-h-1)= 3.784E-04  nbox= 13
     iter. #    97  RMS(g-h-1)= 3.710E-04  nbox= 14
     iter. #    98  RMS(g-h-1)= 3.611E-04  nbox= 15
     iter. #    99  RMS(g-h-1)= 3.634E-04  nbox= 16
     iter. #   100  RMS(g-h-1)= 3.518E-04  nbox= 17
     iter. #   101  RMS(g-h-1)= 3.524E-04  nbox=  2
     iter. #   102  RMS(g-h-1)= 3.434E-04  nbox=  3
     iter. #   103  RMS(g-h-1)= 3.442E-04  nbox=  4
     iter. #   104  RMS(g-h-1)= 3.328E-04  nbox=  5
     iter. #   105  RMS(g-h-1)= 3.329E-04  nbox=  6
     iter. #   106  RMS(g-h-1)= 3.246E-04  nbox=  7
     iter. #   107  RMS(g-h-1)= 3.185E-04  nbox=  8
     iter. #   108  RMS(g-h-1)= 3.118E-04  nbox=  9
     iter. #   109  RMS(g-h-1)= 3.042E-04  nbox= 10
     iter. #   110  RMS(g-h-1)= 3.067E-04  nbox= 11
     iter. #   111  RMS(g-h-1)= 2.962E-04  nbox= 12
     iter. #   112  RMS(g-h-1)= 2.928E-04  nbox= 13
     iter. #   113  RMS(g-h-1)= 2.888E-04  nbox= 14
     iter. #   114  RMS(g-h-1)= 2.854E-04  nbox= 15
     iter. #   115  RMS(g-h-1)= 2.824E-04  nbox= 16
     iter. #   116  RMS(g-h-1)= 2.808E-04  nbox= 17
     iter. #   117  RMS(g-h-1)= 2.797E-04  nbox=  2
     iter. #   118  RMS(g-h-1)= 2.773E-04  nbox=  3
     iter. #   119  RMS(g-h-1)= 2.745E-04  nbox=  4
     iter. #   120  RMS(g-h-1)= 2.717E-04  nbox=  5
     iter. #   121  RMS(g-h-1)= 2.693E-04  nbox=  6
     iter. #   122  RMS(g-h-1)= 2.672E-04  nbox=  7
     iter. #   123  RMS(g-h-1)= 2.659E-04  nbox=  8
     iter. #   124  RMS(g-h-1)= 2.639E-04  nbox=  9
     iter. #   125  RMS(g-h-1)= 2.621E-04  nbox= 10
     iter. #   126  RMS(g-h-1)= 2.601E-04  nbox= 11
     iter. #   127  RMS(g-h-1)= 2.601E-04  nbox= 12
     iter. #   128  RMS(g-h-1)= 2.565E-04  nbox= 13
     iter. #   129  RMS(g-h-1)= 2.567E-04  nbox= 14
     iter. #   130  RMS(g-h-1)= 2.533E-04  nbox= 15
     iter. #   131  RMS(g-h-1)= 2.514E-04  nbox= 16
     iter. #   132  RMS(g-h-1)= 2.498E-04  nbox= 17
     iter. #   133  RMS(g-h-1)= 2.500E-04  nbox=  2
     iter. #   134  RMS(g-h-1)= 2.473E-04  nbox=  3
     iter. #   135  RMS(g-h-1)= 2.470E-04  nbox=  4
     iter. #   136  RMS(g-h-1)= 2.437E-04  nbox=  5
     iter. #   137  RMS(g-h-1)= 2.451E-04  nbox=  6
     iter. #   138  RMS(g-h-1)= 2.416E-04  nbox=  7
     iter. #   139  RMS(g-h-1)= 2.403E-04  nbox=  8
     iter. #   140  RMS(g-h-1)= 2.389E-04  nbox=  9
     iter. #   141  RMS(g-h-1)= 2.359E-04  nbox= 10
     iter. #   142  RMS(g-h-1)= 2.387E-04  nbox= 11
     iter. #   143  RMS(g-h-1)= 2.348E-04  nbox= 12
     iter. #   144  RMS(g-h-1)= 2.336E-04  nbox= 13
     iter. #   145  RMS(g-h-1)= 2.319E-04  nbox= 14
     iter. #   146  RMS(g-h-1)= 2.305E-04  nbox= 15
     iter. #   147  RMS(g-h-1)= 2.289E-04  nbox= 16
     iter. #   148  RMS(g-h-1)= 2.284E-04  nbox= 17
     iter. #   149  RMS(g-h-1)= 2.279E-04  nbox=  2
     iter. #   150  RMS(g-h-1)= 2.246E-04  nbox=  3
     iter. #   151  RMS(g-h-1)= 2.223E-04  nbox=  4
     iter. #   152  RMS(g-h-1)= 2.204E-04  nbox=  5
     iter. #   153  RMS(g-h-1)= 2.195E-04  nbox=  6
     iter. #   154  RMS(g-h-1)= 2.179E-04  nbox=  7
     iter. #   155  RMS(g-h-1)= 2.166E-04  nbox=  8
     iter. #   156  RMS(g-h-1)= 2.152E-04  nbox=  9
     iter. #   157  RMS(g-h-1)= 2.138E-04  nbox= 10
     iter. #   158  RMS(g-h-1)= 2.135E-04  nbox= 11
     iter. #   159  RMS(g-h-1)= 2.123E-04  nbox= 12
     iter. #   160  RMS(g-h-1)= 2.112E-04  nbox= 13
     iter. #   161  RMS(g-h-1)= 2.098E-04  nbox= 14
     iter. #   162  RMS(g-h-1)= 2.083E-04  nbox= 15
     iter. #   163  RMS(g-h-1)= 2.082E-04  nbox= 16
     iter. #   164  RMS(g-h-1)= 2.059E-04  nbox= 17
     iter. #   165  RMS(g-h-1)= 2.058E-04  nbox=  2
     iter. #   166  RMS(g-h-1)= 2.032E-04  nbox=  3
     iter. #   167  RMS(g-h-1)= 2.015E-04  nbox=  4
     iter. #   168  RMS(g-h-1)= 1.997E-04  nbox=  5
     iter. #   169  RMS(g-h-1)= 1.996E-04  nbox=  6
     iter. #   170  RMS(g-h-1)= 1.982E-04  nbox=  7
     iter. #   171  RMS(g-h-1)= 1.972E-04  nbox=  8
     iter. #   172  RMS(g-h-1)= 1.961E-04  nbox=  9
     iter. #   173  RMS(g-h-1)= 1.949E-04  nbox= 10
     iter. #   174  RMS(g-h-1)= 1.963E-04  nbox= 11
     iter. #   175  RMS(g-h-1)= 1.929E-04  nbox= 12
     iter. #   176  RMS(g-h-1)= 1.928E-04  nbox= 13
     iter. #   177  RMS(g-h-1)= 1.913E-04  nbox= 14
     iter. #   178  RMS(g-h-1)= 1.902E-04  nbox= 15
     iter. #   179  RMS(g-h-1)= 1.886E-04  nbox= 16
     iter. #   180  RMS(g-h-1)= 1.883E-04  nbox= 17
     iter. #   181  RMS(g-h-1)= 1.879E-04  nbox=  2
     iter. #   182  RMS(g-h-1)= 1.861E-04  nbox=  3
     iter. #   183  RMS(g-h-1)= 1.845E-04  nbox=  4
     iter. #   184  RMS(g-h-1)= 1.831E-04  nbox=  5
     iter. #   185  RMS(g-h-1)= 1.829E-04  nbox=  6
     iter. #   186  RMS(g-h-1)= 1.809E-04  nbox=  7
     iter. #   187  RMS(g-h-1)= 1.812E-04  nbox=  8
     iter. #   188  RMS(g-h-1)= 1.794E-04  nbox=  9
     iter. #   189  RMS(g-h-1)= 1.781E-04  nbox= 10
     iter. #   190  RMS(g-h-1)= 1.776E-04  nbox= 11
     iter. #   191  RMS(g-h-1)= 1.756E-04  nbox= 12
     iter. #   192  RMS(g-h-1)= 1.763E-04  nbox= 13
     iter. #   193  RMS(g-h-1)= 1.744E-04  nbox= 14
     iter. #   194  RMS(g-h-1)= 1.732E-04  nbox= 15
     iter. #   195  RMS(g-h-1)= 1.720E-04  nbox= 16
     iter. #   196  RMS(g-h-1)= 1.709E-04  nbox= 17
     iter. #   197  RMS(g-h-1)= 1.702E-04  nbox=  2
     iter. #   198  RMS(g-h-1)= 1.681E-04  nbox=  3
     iter. #   199  RMS(g-h-1)= 1.664E-04  nbox=  4
     iter. #   200  RMS(g-h-1)= 1.650E-04  nbox=  5
     iter. #   201  RMS(g-h-1)= 1.638E-04  nbox=  6
     iter. #   202  RMS(g-h-1)= 1.629E-04  nbox=  7
     iter. #   203  RMS(g-h-1)= 1.619E-04  nbox=  8
     iter. #   204  RMS(g-h-1)= 1.603E-04  nbox=  9
     iter. #   205  RMS(g-h-1)= 1.588E-04  nbox= 10
     iter. #   206  RMS(g-h-1)= 1.571E-04  nbox= 11
     iter. #   207  RMS(g-h-1)= 1.553E-04  nbox= 12
     iter. #   208  RMS(g-h-1)= 1.546E-04  nbox= 13
     iter. #   209  RMS(g-h-1)= 1.525E-04  nbox= 14
     iter. #   210  RMS(g-h-1)= 1.507E-04  nbox= 15
     iter. #   211  RMS(g-h-1)= 1.494E-04  nbox= 16
     iter. #   212  RMS(g-h-1)= 1.475E-04  nbox= 17
     iter. #   213  RMS(g-h-1)= 1.497E-04  nbox=  2
     iter. #   214  RMS(g-h-1)= 1.458E-04  nbox=  3
     iter. #   215  RMS(g-h-1)= 1.441E-04  nbox=  4
     iter. #   216  RMS(g-h-1)= 1.429E-04  nbox=  5
     iter. #   217  RMS(g-h-1)= 1.418E-04  nbox=  6
     iter. #   218  RMS(g-h-1)= 1.403E-04  nbox=  7
     iter. #   219  RMS(g-h-1)= 1.388E-04  nbox=  8
     iter. #   220  RMS(g-h-1)= 1.372E-04  nbox=  9
     iter. #   221  RMS(g-h-1)= 1.354E-04  nbox= 10
     iter. #   222  RMS(g-h-1)= 1.359E-04  nbox= 11
     iter. #   223  RMS(g-h-1)= 1.327E-04  nbox= 12
     iter. #   224  RMS(g-h-1)= 1.315E-04  nbox= 13
     iter. #   225  RMS(g-h-1)= 1.295E-04  nbox= 14
     iter. #   226  RMS(g-h-1)= 1.284E-04  nbox= 15
     iter. #   227  RMS(g-h-1)= 1.265E-04  nbox= 16
     iter. #   228  RMS(g-h-1)= 1.271E-04  nbox= 17
     iter. #   229  RMS(g-h-1)= 1.278E-04  nbox=  2
     iter. #   230  RMS(g-h-1)= 1.248E-04  nbox=  3
     iter. #   231  RMS(g-h-1)= 1.234E-04  nbox=  4
     iter. #   232  RMS(g-h-1)= 1.222E-04  nbox=  5
     iter. #   233  RMS(g-h-1)= 1.210E-04  nbox=  6
     iter. #   234  RMS(g-h-1)= 1.204E-04  nbox=  7
     iter. #   235  RMS(g-h-1)= 1.190E-04  nbox=  8
     iter. #   236  RMS(g-h-1)= 1.179E-04  nbox=  9
     iter. #   237  RMS(g-h-1)= 1.164E-04  nbox= 10
     iter. #   238  RMS(g-h-1)= 1.150E-04  nbox= 11
     iter. #   239  RMS(g-h-1)= 1.140E-04  nbox= 12
     iter. #   240  RMS(g-h-1)= 1.127E-04  nbox= 13
     iter. #   241  RMS(g-h-1)= 1.120E-04  nbox= 14
     iter. #   242  RMS(g-h-1)= 1.106E-04  nbox= 15
     iter. #   243  RMS(g-h-1)= 1.094E-04  nbox= 16
     iter. #   244  RMS(g-h-1)= 1.085E-04  nbox= 17
     iter. #   245  RMS(g-h-1)= 1.082E-04  nbox=  2
     iter. #   246  RMS(g-h-1)= 1.070E-04  nbox=  3
     iter. #   247  RMS(g-h-1)= 1.060E-04  nbox=  4
     iter. #   248  RMS(g-h-1)= 1.048E-04  nbox=  5
     iter. #   249  RMS(g-h-1)= 1.053E-04  nbox=  6
     iter. #   250  RMS(g-h-1)= 1.034E-04  nbox=  7
     iter. #   251  RMS(g-h-1)= 1.025E-04  nbox=  8
     iter. #   252  RMS(g-h-1)= 1.013E-04  nbox=  9
     iter. #   253  RMS(g-h-1)= 9.986E-05  nbox= 10
     iter. #   254  RMS(g-h-1)= 1.002E-04  nbox= 11
     iter. #   255  RMS(g-h-1)= 9.835E-05  nbox= 12
     iter. #   256  RMS(g-h-1)= 9.750E-05  nbox= 13
     iter. #   257  RMS(g-h-1)= 9.650E-05  nbox= 14
     iter. #   258  RMS(g-h-1)= 9.561E-05  nbox= 15
     iter. #   259  RMS(g-h-1)= 9.454E-05  nbox= 16
     iter. #   260  RMS(g-h-1)= 9.446E-05  nbox= 17
     iter. #   261  RMS(g-h-1)= 9.428E-05  nbox=  2
     iter. #   262  RMS(g-h-1)= 9.331E-05  nbox=  3
     iter. #   263  RMS(g-h-1)= 9.224E-05  nbox=  4
     iter. #   264  RMS(g-h-1)= 9.126E-05  nbox=  5
     iter. #   265  RMS(g-h-1)= 9.118E-05  nbox=  6
     iter. #   266  RMS(g-h-1)= 8.973E-05  nbox=  7
     iter. #   267  RMS(g-h-1)= 8.959E-05  nbox=  8
     iter. #   268  RMS(g-h-1)= 8.849E-05  nbox=  9
     iter. #   269  RMS(g-h-1)= 8.765E-05  nbox= 10
     iter. #   270  RMS(g-h-1)= 8.644E-05  nbox= 11
     iter. #   271  RMS(g-h-1)= 8.645E-05  nbox= 12
     iter. #   272  RMS(g-h-1)= 8.522E-05  nbox= 13
     iter. #   273  RMS(g-h-1)= 8.436E-05  nbox= 14
     iter. #   274  RMS(g-h-1)= 8.337E-05  nbox= 15
     iter. #   275  RMS(g-h-1)= 8.237E-05  nbox= 16
     iter. #   276  RMS(g-h-1)= 8.138E-05  nbox= 17
     iter. #   277  RMS(g-h-1)= 8.118E-05  nbox=  2
     iter. #   278  RMS(g-h-1)= 8.023E-05  nbox=  3
     iter. #   279  RMS(g-h-1)= 7.944E-05  nbox=  4
     iter. #   280  RMS(g-h-1)= 7.879E-05  nbox=  5
     iter. #   281  RMS(g-h-1)= 7.815E-05  nbox=  6
     iter. #   282  RMS(g-h-1)= 7.727E-05  nbox=  7
     iter. #   283  RMS(g-h-1)= 7.627E-05  nbox=  8
     iter. #   284  RMS(g-h-1)= 7.538E-05  nbox=  9
     iter. #   285  RMS(g-h-1)= 7.472E-05  nbox= 10
     iter. #   286  RMS(g-h-1)= 7.402E-05  nbox= 11
     iter. #   287  RMS(g-h-1)= 7.355E-05  nbox= 12
     iter. #   288  RMS(g-h-1)= 7.298E-05  nbox= 13
     iter. #   289  RMS(g-h-1)= 7.226E-05  nbox= 14
     iter. #   290  RMS(g-h-1)= 7.146E-05  nbox= 15
     iter. #   291  RMS(g-h-1)= 7.066E-05  nbox= 16
     iter. #   292  RMS(g-h-1)= 6.979E-05  nbox= 17
     iter. #   293  RMS(g-h-1)= 6.979E-05  nbox=  2
     iter. #   294  RMS(g-h-1)= 6.893E-05  nbox=  3
     iter. #   295  RMS(g-h-1)= 6.813E-05  nbox=  4
     iter. #   296  RMS(g-h-1)= 6.781E-05  nbox=  5
     iter. #   297  RMS(g-h-1)= 6.722E-05  nbox=  6
     iter. #   298  RMS(g-h-1)= 6.665E-05  nbox=  7
     iter. #   299  RMS(g-h-1)= 6.602E-05  nbox=  8
     iter. #   300  RMS(g-h-1)= 6.542E-05  nbox=  9
     iter. #   301  RMS(g-h-1)= 6.499E-05  nbox= 10
     iter. #   302  RMS(g-h-1)= 6.437E-05  nbox= 11
     iter. #   303  RMS(g-h-1)= 6.442E-05  nbox= 12
     iter. #   304  RMS(g-h-1)= 6.381E-05  nbox= 13
     iter. #   305  RMS(g-h-1)= 6.344E-05  nbox= 14
     iter. #   306  RMS(g-h-1)= 6.292E-05  nbox= 15
     iter. #   307  RMS(g-h-1)= 6.271E-05  nbox= 16
     iter. #   308  RMS(g-h-1)= 6.193E-05  nbox= 17
     iter. #   309  RMS(g-h-1)= 6.216E-05  nbox=  2
     iter. #   310  RMS(g-h-1)= 6.148E-05  nbox=  3
     iter. #   311  RMS(g-h-1)= 6.113E-05  nbox=  4
     iter. #   312  RMS(g-h-1)= 6.083E-05  nbox=  5
     iter. #   313  RMS(g-h-1)= 6.089E-05  nbox=  6
     iter. #   314  RMS(g-h-1)= 6.044E-05  nbox=  7
     iter. #   315  RMS(g-h-1)= 6.043E-05  nbox=  8
     iter. #   316  RMS(g-h-1)= 6.001E-05  nbox=  9
     iter. #   317  RMS(g-h-1)= 6.015E-05  nbox= 10
     iter. #   318  RMS(g-h-1)= 5.960E-05  nbox= 11
     iter. #   319  RMS(g-h-1)= 5.932E-05  nbox= 12
     iter. #   320  RMS(g-h-1)= 5.902E-05  nbox= 13
     iter. #   321  RMS(g-h-1)= 5.871E-05  nbox= 14
     iter. #   322  RMS(g-h-1)= 5.846E-05  nbox= 15
     iter. #   323  RMS(g-h-1)= 5.826E-05  nbox= 16
     iter. #   324  RMS(g-h-1)= 5.802E-05  nbox= 17
     iter. #   325  RMS(g-h-1)= 5.794E-05  nbox=  2
     iter. #   326  RMS(g-h-1)= 5.767E-05  nbox=  3
     iter. #   327  RMS(g-h-1)= 5.738E-05  nbox=  4
     iter. #   328  RMS(g-h-1)= 5.709E-05  nbox=  5
     iter. #   329  RMS(g-h-1)= 5.683E-05  nbox=  6
     iter. #   330  RMS(g-h-1)= 5.671E-05  nbox=  7
     iter. #   331  RMS(g-h-1)= 5.645E-05  nbox=  8
     iter. #   332  RMS(g-h-1)= 5.620E-05  nbox=  9
     iter. #   333  RMS(g-h-1)= 5.664E-05  nbox= 10
     iter. #   334  RMS(g-h-1)= 5.585E-05  nbox= 11
     iter. #   335  RMS(g-h-1)= 5.590E-05  nbox= 12
     iter. #   336  RMS(g-h-1)= 5.559E-05  nbox= 13
     iter. #   337  RMS(g-h-1)= 5.536E-05  nbox= 14
     iter. #   338  RMS(g-h-1)= 5.513E-05  nbox= 15
     iter. #   339  RMS(g-h-1)= 5.491E-05  nbox= 16
     iter. #   340  RMS(g-h-1)= 5.478E-05  nbox= 17
     iter. #   341  RMS(g-h-1)= 5.468E-05  nbox=  2
     iter. #   342  RMS(g-h-1)= 5.444E-05  nbox=  3
     iter. #   343  RMS(g-h-1)= 5.422E-05  nbox=  4
     iter. #   344  RMS(g-h-1)= 5.394E-05  nbox=  5
     iter. #   345  RMS(g-h-1)= 5.369E-05  nbox=  6
     iter. #   346  RMS(g-h-1)= 5.348E-05  nbox=  7
     iter. #   347  RMS(g-h-1)= 5.334E-05  nbox=  8
     iter. #   348  RMS(g-h-1)= 5.320E-05  nbox=  9
     iter. #   349  RMS(g-h-1)= 5.304E-05  nbox= 10
     iter. #   350  RMS(g-h-1)= 5.288E-05  nbox= 11
     iter. #   351  RMS(g-h-1)= 5.274E-05  nbox= 12
     iter. #   352  RMS(g-h-1)= 5.259E-05  nbox= 13
     iter. #   353  RMS(g-h-1)= 5.251E-05  nbox= 14
     iter. #   354  RMS(g-h-1)= 5.235E-05  nbox= 15
     iter. #   355  RMS(g-h-1)= 5.218E-05  nbox= 16
     iter. #   356  RMS(g-h-1)= 5.195E-05  nbox= 17
     iter. #   357  RMS(g-h-1)= 5.191E-05  nbox=  2
     iter. #   358  RMS(g-h-1)= 5.165E-05  nbox=  3
     iter. #   359  RMS(g-h-1)= 5.139E-05  nbox=  4
     iter. #   360  RMS(g-h-1)= 5.122E-05  nbox=  5
     iter. #   361  RMS(g-h-1)= 5.094E-05  nbox=  6
     iter. #   362  RMS(g-h-1)= 5.089E-05  nbox=  7
     iter. #   363  RMS(g-h-1)= 5.071E-05  nbox=  8
     iter. #   364  RMS(g-h-1)= 5.058E-05  nbox=  9
     iter. #   365  RMS(g-h-1)= 5.042E-05  nbox= 10
     iter. #   366  RMS(g-h-1)= 5.036E-05  nbox= 11
     iter. #   367  RMS(g-h-1)= 5.016E-05  nbox= 12
     iter. #   368  RMS(g-h-1)= 5.026E-05  nbox= 13
     iter. #   369  RMS(g-h-1)= 4.986E-05  nbox= 14
     iter. #   370  RMS(g-h-1)= 4.971E-05  nbox= 15
     iter. #   371  RMS(g-h-1)= 4.951E-05  nbox= 16
     iter. #   372  RMS(g-h-1)= 4.934E-05  nbox= 17
     iter. #   373  RMS(g-h-1)= 4.929E-05  nbox=  2
     iter. #   374  RMS(g-h-1)= 4.912E-05  nbox=  3
     iter. #   375  RMS(g-h-1)= 4.896E-05  nbox=  4
     iter. #   376  RMS(g-h-1)= 4.882E-05  nbox=  5
     iter. #   377  RMS(g-h-1)= 4.872E-05  nbox=  6
     iter. #   378  RMS(g-h-1)= 4.860E-05  nbox=  7
     iter. #   379  RMS(g-h-1)= 4.848E-05  nbox=  8
     iter. #   380  RMS(g-h-1)= 4.836E-05  nbox=  9
     iter. #   381  RMS(g-h-1)= 4.821E-05  nbox= 10
     iter. #   382  RMS(g-h-1)= 4.808E-05  nbox= 11
     iter. #   383  RMS(g-h-1)= 4.792E-05  nbox= 12
     iter. #   384  RMS(g-h-1)= 4.786E-05  nbox= 13
     iter. #   385  RMS(g-h-1)= 4.769E-05  nbox= 14
     iter. #   386  RMS(g-h-1)= 4.752E-05  nbox= 15
     iter. #   387  RMS(g-h-1)= 4.741E-05  nbox= 16
     iter. #   388  RMS(g-h-1)= 4.726E-05  nbox= 17
     iter. #   389  RMS(g-h-1)= 4.726E-05  nbox=  2
     iter. #   390  RMS(g-h-1)= 4.710E-05  nbox=  3
     iter. #   391  RMS(g-h-1)= 4.694E-05  nbox=  4
     iter. #   392  RMS(g-h-1)= 4.681E-05  nbox=  5
     iter. #   393  RMS(g-h-1)= 4.670E-05  nbox=  6
     iter. #   394  RMS(g-h-1)= 4.657E-05  nbox=  7
     iter. #   395  RMS(g-h-1)= 4.640E-05  nbox=  8
     iter. #   396  RMS(g-h-1)= 4.624E-05  nbox=  9
     iter. #   397  RMS(g-h-1)= 4.605E-05  nbox= 10
     iter. #   398  RMS(g-h-1)= 4.588E-05  nbox= 11
     iter. #   399  RMS(g-h-1)= 4.570E-05  nbox= 12
     iter. #   400  RMS(g-h-1)= 4.557E-05  nbox= 13
     iter. #   401  RMS(g-h-1)= 4.542E-05  nbox= 14
     iter. #   402  RMS(g-h-1)= 4.517E-05  nbox= 15
     iter. #   403  RMS(g-h-1)= 4.497E-05  nbox= 16
     iter. #   404  RMS(g-h-1)= 4.475E-05  nbox= 17
     iter. #   405  RMS(g-h-1)= 4.471E-05  nbox=  2
     iter. #   406  RMS(g-h-1)= 4.451E-05  nbox=  3
     iter. #   407  RMS(g-h-1)= 4.429E-05  nbox=  4
     iter. #   408  RMS(g-h-1)= 4.413E-05  nbox=  5
     iter. #   409  RMS(g-h-1)= 4.404E-05  nbox=  6
     iter. #   410  RMS(g-h-1)= 4.390E-05  nbox=  7
     iter. #   411  RMS(g-h-1)= 4.377E-05  nbox=  8
     iter. #   412  RMS(g-h-1)= 4.365E-05  nbox=  9
     iter. #   413  RMS(g-h-1)= 4.351E-05  nbox= 10
     iter. #   414  RMS(g-h-1)= 4.341E-05  nbox= 11
     iter. #   415  RMS(g-h-1)= 4.329E-05  nbox= 12
     iter. #   416  RMS(g-h-1)= 4.321E-05  nbox= 13
     iter. #   417  RMS(g-h-1)= 4.312E-05  nbox= 14
     iter. #   418  RMS(g-h-1)= 4.300E-05  nbox= 15
     iter. #   419  RMS(g-h-1)= 4.288E-05  nbox= 16
     iter. #   420  RMS(g-h-1)= 4.276E-05  nbox= 17
     iter. #   421  RMS(g-h-1)= 4.274E-05  nbox=  2
     iter. #   422  RMS(g-h-1)= 4.262E-05  nbox=  3
     iter. #   423  RMS(g-h-1)= 4.254E-05  nbox=  4
     iter. #   424  RMS(g-h-1)= 4.248E-05  nbox=  5
     iter. #   425  RMS(g-h-1)= 4.246E-05  nbox=  6
     iter. #   426  RMS(g-h-1)= 4.239E-05  nbox=  7
     iter. #   427  RMS(g-h-1)= 4.233E-05  nbox=  8
     iter. #   428  RMS(g-h-1)= 4.226E-05  nbox=  9
     iter. #   429  RMS(g-h-1)= 4.219E-05  nbox= 10
     iter. #   430  RMS(g-h-1)= 4.215E-05  nbox= 11
     iter. #   431  RMS(g-h-1)= 4.209E-05  nbox= 12
     iter. #   432  RMS(g-h-1)= 4.202E-05  nbox= 13
     iter. #   433  RMS(g-h-1)= 4.195E-05  nbox= 14
     iter. #   434  RMS(g-h-1)= 4.188E-05  nbox= 15
     iter. #   435  RMS(g-h-1)= 4.182E-05  nbox= 16
     iter. #   436  RMS(g-h-1)= 4.175E-05  nbox= 17
     iter. #   437  RMS(g-h-1)= 4.173E-05  nbox=  2
     iter. #   438  RMS(g-h-1)= 4.165E-05  nbox=  3
     iter. #   439  RMS(g-h-1)= 4.157E-05  nbox=  4
     iter. #   440  RMS(g-h-1)= 4.148E-05  nbox=  5
     iter. #   441  RMS(g-h-1)= 4.141E-05  nbox=  6
     iter. #   442  RMS(g-h-1)= 4.136E-05  nbox=  7
     iter. #   443  RMS(g-h-1)= 4.126E-05  nbox=  8
     iter. #   444  RMS(g-h-1)= 4.113E-05  nbox=  9
     iter. #   445  RMS(g-h-1)= 4.094E-05  nbox= 10
     iter. #   446  RMS(g-h-1)= 4.079E-05  nbox= 11
     iter. #   447  RMS(g-h-1)= 4.061E-05  nbox= 12
     iter. #   448  RMS(g-h-1)= 4.046E-05  nbox= 13
     iter. #   449  RMS(g-h-1)= 4.034E-05  nbox= 14
     iter. #   450  RMS(g-h-1)= 4.025E-05  nbox= 15
     iter. #   451  RMS(g-h-1)= 4.011E-05  nbox= 16
     iter. #   452  RMS(g-h-1)= 3.994E-05  nbox= 17
     iter. #   453  RMS(g-h-1)= 3.991E-05  nbox=  2
     iter. #   454  RMS(g-h-1)= 3.974E-05  nbox=  3
     iter. #   455  RMS(g-h-1)= 3.963E-05  nbox=  4
     iter. #   456  RMS(g-h-1)= 3.949E-05  nbox=  5
     iter. #   457  RMS(g-h-1)= 3.936E-05  nbox=  6
     iter. #   458  RMS(g-h-1)= 3.927E-05  nbox=  7
     iter. #   459  RMS(g-h-1)= 3.913E-05  nbox=  8
     iter. #   460  RMS(g-h-1)= 3.899E-05  nbox=  9
     iter. #   461  RMS(g-h-1)= 3.881E-05  nbox= 10
     iter. #   462  RMS(g-h-1)= 3.865E-05  nbox= 11
     iter. #   463  RMS(g-h-1)= 3.846E-05  nbox= 12
     iter. #   464  RMS(g-h-1)= 3.830E-05  nbox= 13
     iter. #   465  RMS(g-h-1)= 3.821E-05  nbox= 14
     iter. #   466  RMS(g-h-1)= 3.808E-05  nbox= 15
     iter. #   467  RMS(g-h-1)= 3.794E-05  nbox= 16
     iter. #   468  RMS(g-h-1)= 3.781E-05  nbox= 17
     iter. #   469  RMS(g-h-1)= 3.779E-05  nbox=  2
     iter. #   470  RMS(g-h-1)= 3.766E-05  nbox=  3
     iter. #   471  RMS(g-h-1)= 3.754E-05  nbox=  4
     iter. #   472  RMS(g-h-1)= 3.741E-05  nbox=  5
     iter. #   473  RMS(g-h-1)= 3.730E-05  nbox=  6
     iter. #   474  RMS(g-h-1)= 3.719E-05  nbox=  7
     iter. #   475  RMS(g-h-1)= 3.707E-05  nbox=  8
     iter. #   476  RMS(g-h-1)= 3.693E-05  nbox=  9
     iter. #   477  RMS(g-h-1)= 3.678E-05  nbox= 10
     iter. #   478  RMS(g-h-1)= 3.663E-05  nbox= 11
     iter. #   479  RMS(g-h-1)= 3.649E-05  nbox= 12
     iter. #   480  RMS(g-h-1)= 3.635E-05  nbox= 13
     iter. #   481  RMS(g-h-1)= 3.626E-05  nbox= 14
     iter. #   482  RMS(g-h-1)= 3.614E-05  nbox= 15
     iter. #   483  RMS(g-h-1)= 3.599E-05  nbox= 16
     iter. #   484  RMS(g-h-1)= 3.582E-05  nbox= 17
     iter. #   485  RMS(g-h-1)= 3.579E-05  nbox=  2
     iter. #   486  RMS(g-h-1)= 3.556E-05  nbox=  3
     iter. #   487  RMS(g-h-1)= 3.532E-05  nbox=  4
     iter. #   488  RMS(g-h-1)= 3.511E-05  nbox=  5
     iter. #   489  RMS(g-h-1)= 3.493E-05  nbox=  6
     iter. #   490  RMS(g-h-1)= 3.479E-05  nbox=  7
     iter. #   491  RMS(g-h-1)= 3.459E-05  nbox=  8
     iter. #   492  RMS(g-h-1)= 3.439E-05  nbox=  9
     iter. #   493  RMS(g-h-1)= 3.422E-05  nbox= 10
     iter. #   494  RMS(g-h-1)= 3.419E-05  nbox= 11
     iter. #   495  RMS(g-h-1)= 3.397E-05  nbox= 12
     iter. #   496  RMS(g-h-1)= 3.385E-05  nbox= 13
     iter. #   497  RMS(g-h-1)= 3.368E-05  nbox= 14
     iter. #   498  RMS(g-h-1)= 3.353E-05  nbox= 15
     iter. #   499  RMS(g-h-1)= 3.336E-05  nbox= 16
     iter. #   500  RMS(g-h-1)= 3.320E-05  nbox= 17
     iter. #   501  RMS(g-h-1)= 3.316E-05  nbox=  2
     iter. #   502  RMS(g-h-1)= 3.294E-05  nbox=  3
     iter. #   503  RMS(g-h-1)= 3.275E-05  nbox=  4
     iter. #   504  RMS(g-h-1)= 3.257E-05  nbox=  5
     iter. #   505  RMS(g-h-1)= 3.239E-05  nbox=  6
     iter. #   506  RMS(g-h-1)= 3.233E-05  nbox=  7
     iter. #   507  RMS(g-h-1)= 3.213E-05  nbox=  8
     iter. #   508  RMS(g-h-1)= 3.198E-05  nbox=  9
     iter. #   509  RMS(g-h-1)= 3.182E-05  nbox= 10
     iter. #   510  RMS(g-h-1)= 3.168E-05  nbox= 11
     iter. #   511  RMS(g-h-1)= 3.155E-05  nbox= 12
     iter. #   512  RMS(g-h-1)= 3.143E-05  nbox= 13
     iter. #   513  RMS(g-h-1)= 3.139E-05  nbox= 14
     iter. #   514  RMS(g-h-1)= 3.131E-05  nbox= 15
     iter. #   515  RMS(g-h-1)= 3.122E-05  nbox= 16
     iter. #   516  RMS(g-h-1)= 3.115E-05  nbox= 17
     iter. #   517  RMS(g-h-1)= 3.114E-05  nbox=  2
     iter. #   518  RMS(g-h-1)= 3.106E-05  nbox=  3
     iter. #   519  RMS(g-h-1)= 3.098E-05  nbox=  4
     iter. #   520  RMS(g-h-1)= 3.091E-05  nbox=  5
     iter. #   521  RMS(g-h-1)= 3.081E-05  nbox=  6
     iter. #   522  RMS(g-h-1)= 3.075E-05  nbox=  7
     iter. #   523  RMS(g-h-1)= 3.070E-05  nbox=  8
     iter. #   524  RMS(g-h-1)= 3.064E-05  nbox=  9
     iter. #   525  RMS(g-h-1)= 3.058E-05  nbox= 10
     iter. #   526  RMS(g-h-1)= 3.053E-05  nbox= 11
     iter. #   527  RMS(g-h-1)= 3.048E-05  nbox= 12
     iter. #   528  RMS(g-h-1)= 3.043E-05  nbox= 13
     iter. #   529  RMS(g-h-1)= 3.040E-05  nbox= 14
     iter. #   530  RMS(g-h-1)= 3.037E-05  nbox= 15
     iter. #   531  RMS(g-h-1)= 3.034E-05  nbox= 16
     iter. #   532  RMS(g-h-1)= 3.029E-05  nbox= 17
     iter. #   533  RMS(g-h-1)= 3.029E-05  nbox=  2
     iter. #   534  RMS(g-h-1)= 3.023E-05  nbox=  3
     iter. #   535  RMS(g-h-1)= 3.018E-05  nbox=  4
     iter. #   536  RMS(g-h-1)= 3.013E-05  nbox=  5
     iter. #   537  RMS(g-h-1)= 3.007E-05  nbox=  6
     iter. #   538  RMS(g-h-1)= 3.003E-05  nbox=  7
     iter. #   539  RMS(g-h-1)= 2.999E-05  nbox=  8
     iter. #   540  RMS(g-h-1)= 2.994E-05  nbox=  9
     iter. #   541  RMS(g-h-1)= 2.989E-05  nbox= 10
     iter. #   542  RMS(g-h-1)= 2.983E-05  nbox= 11
     iter. #   543  RMS(g-h-1)= 2.977E-05  nbox= 12
     iter. #   544  RMS(g-h-1)= 2.970E-05  nbox= 13
     iter. #   545  RMS(g-h-1)= 2.963E-05  nbox= 14
     iter. #   546  RMS(g-h-1)= 2.956E-05  nbox= 15
     iter. #   547  RMS(g-h-1)= 2.952E-05  nbox= 16
     iter. #   548  RMS(g-h-1)= 2.945E-05  nbox= 17
     iter. #   549  RMS(g-h-1)= 2.943E-05  nbox=  2
     iter. #   550  RMS(g-h-1)= 2.935E-05  nbox=  3
     iter. #   551  RMS(g-h-1)= 2.927E-05  nbox=  4
     iter. #   552  RMS(g-h-1)= 2.920E-05  nbox=  5
     iter. #   553  RMS(g-h-1)= 2.912E-05  nbox=  6
     iter. #   554  RMS(g-h-1)= 2.906E-05  nbox=  7
     iter. #   555  RMS(g-h-1)= 2.902E-05  nbox=  8
     iter. #   556  RMS(g-h-1)= 2.893E-05  nbox=  9
     iter. #   557  RMS(g-h-1)= 2.885E-05  nbox= 10
     iter. #   558  RMS(g-h-1)= 2.876E-05  nbox= 11
     iter. #   559  RMS(g-h-1)= 2.869E-05  nbox= 12
     iter. #   560  RMS(g-h-1)= 2.859E-05  nbox= 13
     iter. #   561  RMS(g-h-1)= 2.847E-05  nbox= 14
     iter. #   562  RMS(g-h-1)= 2.841E-05  nbox= 15
     iter. #   563  RMS(g-h-1)= 2.829E-05  nbox= 16
     iter. #   564  RMS(g-h-1)= 2.816E-05  nbox= 17
     iter. #   565  RMS(g-h-1)= 2.813E-05  nbox=  2
     iter. #   566  RMS(g-h-1)= 2.797E-05  nbox=  3
     iter. #   567  RMS(g-h-1)= 2.786E-05  nbox=  4
     iter. #   568  RMS(g-h-1)= 2.774E-05  nbox=  5
     iter. #   569  RMS(g-h-1)= 2.765E-05  nbox=  6
     iter. #   570  RMS(g-h-1)= 2.758E-05  nbox=  7
     iter. #   571  RMS(g-h-1)= 2.750E-05  nbox=  8
     iter. #   572  RMS(g-h-1)= 2.740E-05  nbox=  9
     iter. #   573  RMS(g-h-1)= 2.730E-05  nbox= 10
     iter. #   574  RMS(g-h-1)= 2.719E-05  nbox= 11
     iter. #   575  RMS(g-h-1)= 2.707E-05  nbox= 12
     iter. #   576  RMS(g-h-1)= 2.697E-05  nbox= 13
     iter. #   577  RMS(g-h-1)= 2.685E-05  nbox= 14
     iter. #   578  RMS(g-h-1)= 2.679E-05  nbox= 15
     iter. #   579  RMS(g-h-1)= 2.668E-05  nbox= 16
     iter. #   580  RMS(g-h-1)= 2.655E-05  nbox= 17
     iter. #   581  RMS(g-h-1)= 2.653E-05  nbox=  2
     iter. #   582  RMS(g-h-1)= 2.640E-05  nbox=  3
     iter. #   583  RMS(g-h-1)= 2.629E-05  nbox=  4
     iter. #   584  RMS(g-h-1)= 2.617E-05  nbox=  5
     iter. #   585  RMS(g-h-1)= 2.607E-05  nbox=  6
     iter. #   586  RMS(g-h-1)= 2.600E-05  nbox=  7
     iter. #   587  RMS(g-h-1)= 2.593E-05  nbox=  8
     iter. #   588  RMS(g-h-1)= 2.584E-05  nbox=  9
     iter. #   589  RMS(g-h-1)= 2.574E-05  nbox= 10
     iter. #   590  RMS(g-h-1)= 2.565E-05  nbox= 11
     iter. #   591  RMS(g-h-1)= 2.560E-05  nbox= 12
     iter. #   592  RMS(g-h-1)= 2.551E-05  nbox= 13
     iter. #   593  RMS(g-h-1)= 2.545E-05  nbox= 14
     iter. #   594  RMS(g-h-1)= 2.534E-05  nbox= 15
     iter. #   595  RMS(g-h-1)= 2.526E-05  nbox= 16
     iter. #   596  RMS(g-h-1)= 2.515E-05  nbox= 17
     iter. #   597  RMS(g-h-1)= 2.513E-05  nbox=  2
     iter. #   598  RMS(g-h-1)= 2.502E-05  nbox=  3
     iter. #   599  RMS(g-h-1)= 2.491E-05  nbox=  4
     iter. #   600  RMS(g-h-1)= 2.482E-05  nbox=  5
     iter. #   601  RMS(g-h-1)= 2.473E-05  nbox=  6
     iter. #   602  RMS(g-h-1)= 2.467E-05  nbox=  7
     iter. #   603  RMS(g-h-1)= 2.461E-05  nbox=  8
     iter. #   604  RMS(g-h-1)= 2.454E-05  nbox=  9
     iter. #   605  RMS(g-h-1)= 2.446E-05  nbox= 10
     iter. #   606  RMS(g-h-1)= 2.438E-05  nbox= 11
     iter. #   607  RMS(g-h-1)= 2.430E-05  nbox= 12
     iter. #   608  RMS(g-h-1)= 2.420E-05  nbox= 13
     iter. #   609  RMS(g-h-1)= 2.418E-05  nbox= 14
     iter. #   610  RMS(g-h-1)= 2.408E-05  nbox= 15
     iter. #   611  RMS(g-h-1)= 2.401E-05  nbox= 16
     iter. #   612  RMS(g-h-1)= 2.393E-05  nbox= 17
     iter. #   613  RMS(g-h-1)= 2.391E-05  nbox=  2
     iter. #   614  RMS(g-h-1)= 2.382E-05  nbox=  3
     iter. #   615  RMS(g-h-1)= 2.375E-05  nbox=  4
     iter. #   616  RMS(g-h-1)= 2.368E-05  nbox=  5
     iter. #   617  RMS(g-h-1)= 2.363E-05  nbox=  6
     iter. #   618  RMS(g-h-1)= 2.359E-05  nbox=  7
     iter. #   619  RMS(g-h-1)= 2.354E-05  nbox=  8
     iter. #   620  RMS(g-h-1)= 2.350E-05  nbox=  9
     iter. #   621  RMS(g-h-1)= 2.345E-05  nbox= 10
     iter. #   622  RMS(g-h-1)= 2.340E-05  nbox= 11
     iter. #   623  RMS(g-h-1)= 2.335E-05  nbox= 12
     iter. #   624  RMS(g-h-1)= 2.329E-05  nbox= 13
     iter. #   625  RMS(g-h-1)= 2.324E-05  nbox= 14
     iter. #   626  RMS(g-h-1)= 2.319E-05  nbox= 15
     iter. #   627  RMS(g-h-1)= 2.316E-05  nbox= 16
     iter. #   628  RMS(g-h-1)= 2.312E-05  nbox= 17
     iter. #   629  RMS(g-h-1)= 2.311E-05  nbox=  2
     iter. #   630  RMS(g-h-1)= 2.305E-05  nbox=  3
     iter. #   631  RMS(g-h-1)= 2.300E-05  nbox=  4
     iter. #   632  RMS(g-h-1)= 2.295E-05  nbox=  5
     iter. #   633  RMS(g-h-1)= 2.290E-05  nbox=  6
     iter. #   634  RMS(g-h-1)= 2.286E-05  nbox=  7
     iter. #   635  RMS(g-h-1)= 2.283E-05  nbox=  8
     iter. #   636  RMS(g-h-1)= 2.280E-05  nbox=  9
     iter. #   637  RMS(g-h-1)= 2.276E-05  nbox= 10
     iter. #   638  RMS(g-h-1)= 2.271E-05  nbox= 11
     iter. #   639  RMS(g-h-1)= 2.266E-05  nbox= 12
     iter. #   640  RMS(g-h-1)= 2.259E-05  nbox= 13
     iter. #   641  RMS(g-h-1)= 2.260E-05  nbox= 14
     iter. #   642  RMS(g-h-1)= 2.252E-05  nbox= 15
     iter. #   643  RMS(g-h-1)= 2.246E-05  nbox= 16
     iter. #   644  RMS(g-h-1)= 2.240E-05  nbox= 17
     iter. #   645  RMS(g-h-1)= 2.239E-05  nbox=  2
     iter. #   646  RMS(g-h-1)= 2.232E-05  nbox=  3
     iter. #   647  RMS(g-h-1)= 2.226E-05  nbox=  4
     iter. #   648  RMS(g-h-1)= 2.218E-05  nbox=  5
     iter. #   649  RMS(g-h-1)= 2.212E-05  nbox=  6
     iter. #   650  RMS(g-h-1)= 2.206E-05  nbox=  7
     iter. #   651  RMS(g-h-1)= 2.201E-05  nbox=  8
     iter. #   652  RMS(g-h-1)= 2.193E-05  nbox=  9
     iter. #   653  RMS(g-h-1)= 2.186E-05  nbox= 10
     iter. #   654  RMS(g-h-1)= 2.179E-05  nbox= 11
     iter. #   655  RMS(g-h-1)= 2.171E-05  nbox= 12
     iter. #   656  RMS(g-h-1)= 2.171E-05  nbox= 13
     iter. #   657  RMS(g-h-1)= 2.161E-05  nbox= 14
     iter. #   658  RMS(g-h-1)= 2.156E-05  nbox= 15
     iter. #   659  RMS(g-h-1)= 2.147E-05  nbox= 16
     iter. #   660  RMS(g-h-1)= 2.139E-05  nbox= 17
     iter. #   661  RMS(g-h-1)= 2.137E-05  nbox=  2
     iter. #   662  RMS(g-h-1)= 2.127E-05  nbox=  3
     iter. #   663  RMS(g-h-1)= 2.117E-05  nbox=  4
     iter. #   664  RMS(g-h-1)= 2.107E-05  nbox=  5
     iter. #   665  RMS(g-h-1)= 2.097E-05  nbox=  6
     iter. #   666  RMS(g-h-1)= 2.088E-05  nbox=  7
     iter. #   667  RMS(g-h-1)= 2.082E-05  nbox=  8
     iter. #   668  RMS(g-h-1)= 2.072E-05  nbox=  9
     iter. #   669  RMS(g-h-1)= 2.063E-05  nbox= 10
     iter. #   670  RMS(g-h-1)= 2.053E-05  nbox= 11
     iter. #   671  RMS(g-h-1)= 2.044E-05  nbox= 12
     iter. #   672  RMS(g-h-1)= 2.033E-05  nbox= 13
     iter. #   673  RMS(g-h-1)= 2.023E-05  nbox= 14
     iter. #   674  RMS(g-h-1)= 2.015E-05  nbox= 15
     iter. #   675  RMS(g-h-1)= 2.007E-05  nbox= 16
     iter. #   676  RMS(g-h-1)= 1.995E-05  nbox= 17
     iter. #   677  RMS(g-h-1)= 1.993E-05  nbox=  2
     iter. #   678  RMS(g-h-1)= 1.981E-05  nbox=  3
     iter. #   679  RMS(g-h-1)= 1.969E-05  nbox=  4
     iter. #   680  RMS(g-h-1)= 1.957E-05  nbox=  5
     iter. #   681  RMS(g-h-1)= 1.944E-05  nbox=  6
     iter. #   682  RMS(g-h-1)= 1.937E-05  nbox=  7
     iter. #   683  RMS(g-h-1)= 1.927E-05  nbox=  8
     iter. #   684  RMS(g-h-1)= 1.913E-05  nbox=  9
     iter. #   685  RMS(g-h-1)= 1.900E-05  nbox= 10
     iter. #   686  RMS(g-h-1)= 1.885E-05  nbox= 11
     iter. #   687  RMS(g-h-1)= 1.873E-05  nbox= 12
     iter. #   688  RMS(g-h-1)= 1.867E-05  nbox= 13
     iter. #   689  RMS(g-h-1)= 1.852E-05  nbox= 14
     iter. #   690  RMS(g-h-1)= 1.844E-05  nbox= 15
     iter. #   691  RMS(g-h-1)= 1.831E-05  nbox= 16
     iter. #   692  RMS(g-h-1)= 1.820E-05  nbox= 17
     iter. #   693  RMS(g-h-1)= 1.818E-05  nbox=  2
     iter. #   694  RMS(g-h-1)= 1.805E-05  nbox=  3
     iter. #   695  RMS(g-h-1)= 1.795E-05  nbox=  4
     iter. #   696  RMS(g-h-1)= 1.785E-05  nbox=  5
     iter. #   697  RMS(g-h-1)= 1.774E-05  nbox=  6
     iter. #   698  RMS(g-h-1)= 1.769E-05  nbox=  7
     iter. #   699  RMS(g-h-1)= 1.759E-05  nbox=  8
     iter. #   700  RMS(g-h-1)= 1.749E-05  nbox=  9
     iter. #   701  RMS(g-h-1)= 1.739E-05  nbox= 10
     iter. #   702  RMS(g-h-1)= 1.730E-05  nbox= 11
     iter. #   703  RMS(g-h-1)= 1.720E-05  nbox= 12
     iter. #   704  RMS(g-h-1)= 1.711E-05  nbox= 13
     iter. #   705  RMS(g-h-1)= 1.702E-05  nbox= 14
     iter. #   706  RMS(g-h-1)= 1.697E-05  nbox= 15
     iter. #   707  RMS(g-h-1)= 1.689E-05  nbox= 16
     iter. #   708  RMS(g-h-1)= 1.680E-05  nbox= 17
     iter. #   709  RMS(g-h-1)= 1.678E-05  nbox=  2
     iter. #   710  RMS(g-h-1)= 1.668E-05  nbox=  3
     iter. #   711  RMS(g-h-1)= 1.658E-05  nbox=  4
     iter. #   712  RMS(g-h-1)= 1.649E-05  nbox=  5
     iter. #   713  RMS(g-h-1)= 1.639E-05  nbox=  6
     iter. #   714  RMS(g-h-1)= 1.637E-05  nbox=  7
     iter. #   715  RMS(g-h-1)= 1.624E-05  nbox=  8
     iter. #   716  RMS(g-h-1)= 1.616E-05  nbox=  9
     iter. #   717  RMS(g-h-1)= 1.605E-05  nbox= 10
     iter. #   718  RMS(g-h-1)= 1.596E-05  nbox= 11
     iter. #   719  RMS(g-h-1)= 1.586E-05  nbox= 12
     iter. #   720  RMS(g-h-1)= 1.576E-05  nbox= 13
     iter. #   721  RMS(g-h-1)= 1.567E-05  nbox= 14
     iter. #   722  RMS(g-h-1)= 1.560E-05  nbox= 15
     iter. #   723  RMS(g-h-1)= 1.550E-05  nbox= 16
     iter. #   724  RMS(g-h-1)= 1.537E-05  nbox= 17
     iter. #   725  RMS(g-h-1)= 1.535E-05  nbox=  2
     iter. #   726  RMS(g-h-1)= 1.524E-05  nbox=  3
     iter. #   727  RMS(g-h-1)= 1.513E-05  nbox=  4
     iter. #   728  RMS(g-h-1)= 1.504E-05  nbox=  5
     iter. #   729  RMS(g-h-1)= 1.495E-05  nbox=  6
     iter. #   730  RMS(g-h-1)= 1.491E-05  nbox=  7
     iter. #   731  RMS(g-h-1)= 1.481E-05  nbox=  8
     iter. #   732  RMS(g-h-1)= 1.472E-05  nbox=  9
     iter. #   733  RMS(g-h-1)= 1.463E-05  nbox= 10
     iter. #   734  RMS(g-h-1)= 1.454E-05  nbox= 11
     iter. #   735  RMS(g-h-1)= 1.445E-05  nbox= 12
     iter. #   736  RMS(g-h-1)= 1.436E-05  nbox= 13
     iter. #   737  RMS(g-h-1)= 1.431E-05  nbox= 14
     iter. #   738  RMS(g-h-1)= 1.424E-05  nbox= 15
     iter. #   739  RMS(g-h-1)= 1.415E-05  nbox= 16
     iter. #   740  RMS(g-h-1)= 1.406E-05  nbox= 17
     iter. #   741  RMS(g-h-1)= 1.404E-05  nbox=  2
     iter. #   742  RMS(g-h-1)= 1.393E-05  nbox=  3
     iter. #   743  RMS(g-h-1)= 1.385E-05  nbox=  4
     iter. #   744  RMS(g-h-1)= 1.376E-05  nbox=  5
     iter. #   745  RMS(g-h-1)= 1.368E-05  nbox=  6
     iter. #   746  RMS(g-h-1)= 1.365E-05  nbox=  7
     iter. #   747  RMS(g-h-1)= 1.355E-05  nbox=  8
     iter. #   748  RMS(g-h-1)= 1.347E-05  nbox=  9
     iter. #   749  RMS(g-h-1)= 1.337E-05  nbox= 10
     iter. #   750  RMS(g-h-1)= 1.330E-05  nbox= 11
     iter. #   751  RMS(g-h-1)= 1.321E-05  nbox= 12
     iter. #   752  RMS(g-h-1)= 1.313E-05  nbox= 13
     iter. #   753  RMS(g-h-1)= 1.307E-05  nbox= 14
     iter. #   754  RMS(g-h-1)= 1.300E-05  nbox= 15
     iter. #   755  RMS(g-h-1)= 1.292E-05  nbox= 16
     iter. #   756  RMS(g-h-1)= 1.285E-05  nbox= 17
     iter. #   757  RMS(g-h-1)= 1.283E-05  nbox=  2
     iter. #   758  RMS(g-h-1)= 1.274E-05  nbox=  3
     iter. #   759  RMS(g-h-1)= 1.267E-05  nbox=  4
     iter. #   760  RMS(g-h-1)= 1.260E-05  nbox=  5
     iter. #   761  RMS(g-h-1)= 1.252E-05  nbox=  6
     iter. #   762  RMS(g-h-1)= 1.250E-05  nbox=  7
     iter. #   763  RMS(g-h-1)= 1.240E-05  nbox=  8
     iter. #   764  RMS(g-h-1)= 1.232E-05  nbox=  9
     iter. #   765  RMS(g-h-1)= 1.224E-05  nbox= 10
     iter. #   766  RMS(g-h-1)= 1.215E-05  nbox= 11
     iter. #   767  RMS(g-h-1)= 1.207E-05  nbox= 12
     iter. #   768  RMS(g-h-1)= 1.198E-05  nbox= 13
     iter. #   769  RMS(g-h-1)= 1.193E-05  nbox= 14
     iter. #   770  RMS(g-h-1)= 1.186E-05  nbox= 15
     iter. #   771  RMS(g-h-1)= 1.179E-05  nbox= 16
     iter. #   772  RMS(g-h-1)= 1.171E-05  nbox= 17
     iter. #   773  RMS(g-h-1)= 1.169E-05  nbox=  2
     iter. #   774  RMS(g-h-1)= 1.161E-05  nbox=  3
     iter. #   775  RMS(g-h-1)= 1.152E-05  nbox=  4
     iter. #   776  RMS(g-h-1)= 1.144E-05  nbox=  5
     iter. #   777  RMS(g-h-1)= 1.136E-05  nbox=  6
     iter. #   778  RMS(g-h-1)= 1.132E-05  nbox=  7
     iter. #   779  RMS(g-h-1)= 1.120E-05  nbox=  8
     iter. #   780  RMS(g-h-1)= 1.111E-05  nbox=  9
     iter. #   781  RMS(g-h-1)= 1.100E-05  nbox= 10
     iter. #   782  RMS(g-h-1)= 1.091E-05  nbox= 11
     iter. #   783  RMS(g-h-1)= 1.082E-05  nbox= 12
     iter. #   784  RMS(g-h-1)= 1.072E-05  nbox= 13
     iter. #   785  RMS(g-h-1)= 1.067E-05  nbox= 14
     iter. #   786  RMS(g-h-1)= 1.058E-05  nbox= 15
     iter. #   787  RMS(g-h-1)= 1.047E-05  nbox= 16
     iter. #   788  RMS(g-h-1)= 1.036E-05  nbox= 17
     iter. #   789  RMS(g-h-1)= 1.034E-05  nbox=  2
     iter. #   790  RMS(g-h-1)= 1.021E-05  nbox=  3
     iter. #   791  RMS(g-h-1)= 1.010E-05  nbox=  4
     iter. #   792  RMS(g-h-1)= 1.001E-05  nbox=  5
     iter. #   793  RMS(g-h-1)= 9.923E-06  nbox=  6
     iter. #   794  RMS(g-h-1)= 9.836E-06  nbox=  7
     iter. #   795  RMS(g-h-1)= 9.720E-06  nbox=  8
     iter. #   796  RMS(g-h-1)= 9.618E-06  nbox=  9
     iter. #   797  RMS(g-h-1)= 9.509E-06  nbox= 10
     iter. #   798  RMS(g-h-1)= 9.411E-06  nbox= 11
     iter. #   799  RMS(g-h-1)= 9.316E-06  nbox= 12
     iter. #   800  RMS(g-h-1)= 9.248E-06  nbox= 13
     iter. #   801  RMS(g-h-1)= 9.184E-06  nbox= 14
     iter. #   802  RMS(g-h-1)= 9.114E-06  nbox= 15
     iter. #   803  RMS(g-h-1)= 9.033E-06  nbox= 16
     iter. #   804  RMS(g-h-1)= 8.960E-06  nbox= 17
     iter. #   805  RMS(g-h-1)= 8.947E-06  nbox=  2
     iter. #   806  RMS(g-h-1)= 8.872E-06  nbox=  3
     iter. #   807  RMS(g-h-1)= 8.806E-06  nbox=  4
     iter. #   808  RMS(g-h-1)= 8.746E-06  nbox=  5
     iter. #   809  RMS(g-h-1)= 8.702E-06  nbox=  6
     iter. #   810  RMS(g-h-1)= 8.657E-06  nbox=  7
     iter. #   811  RMS(g-h-1)= 8.591E-06  nbox=  8
     iter. #   812  RMS(g-h-1)= 8.529E-06  nbox=  9
     iter. #   813  RMS(g-h-1)= 8.475E-06  nbox= 10
     iter. #   814  RMS(g-h-1)= 8.416E-06  nbox= 11
     iter. #   815  RMS(g-h-1)= 8.365E-06  nbox= 12
     iter. #   816  RMS(g-h-1)= 8.312E-06  nbox= 13
     iter. #   817  RMS(g-h-1)= 8.288E-06  nbox= 14
     iter. #   818  RMS(g-h-1)= 8.245E-06  nbox= 15
     iter. #   819  RMS(g-h-1)= 8.201E-06  nbox= 16
     iter. #   820  RMS(g-h-1)= 8.162E-06  nbox= 17
     iter. #   821  RMS(g-h-1)= 8.159E-06  nbox=  2
     iter. #   822  RMS(g-h-1)= 8.110E-06  nbox=  3
     iter. #   823  RMS(g-h-1)= 8.075E-06  nbox=  4
     iter. #   824  RMS(g-h-1)= 8.039E-06  nbox=  5
     iter. #   825  RMS(g-h-1)= 8.012E-06  nbox=  6
     iter. #   826  RMS(g-h-1)= 7.975E-06  nbox=  7
     iter. #   827  RMS(g-h-1)= 7.944E-06  nbox=  8
     iter. #   828  RMS(g-h-1)= 7.892E-06  nbox=  9
     iter. #   829  RMS(g-h-1)= 7.844E-06  nbox= 10
     iter. #   830  RMS(g-h-1)= 7.802E-06  nbox= 11
     iter. #   831  RMS(g-h-1)= 7.748E-06  nbox= 12
     iter. #   832  RMS(g-h-1)= 7.707E-06  nbox= 13
     iter. #   833  RMS(g-h-1)= 7.693E-06  nbox= 14
     iter. #   834  RMS(g-h-1)= 7.650E-06  nbox= 15
     iter. #   835  RMS(g-h-1)= 7.608E-06  nbox= 16
     iter. #   836  RMS(g-h-1)= 7.566E-06  nbox= 17
     iter. #   837  RMS(g-h-1)= 7.555E-06  nbox=  2
     iter. #   838  RMS(g-h-1)= 7.512E-06  nbox=  3
     iter. #   839  RMS(g-h-1)= 7.473E-06  nbox=  4
     iter. #   840  RMS(g-h-1)= 7.430E-06  nbox=  5
     iter. #   841  RMS(g-h-1)= 7.387E-06  nbox=  6
     iter. #   842  RMS(g-h-1)= 7.349E-06  nbox=  7
     iter. #   843  RMS(g-h-1)= 7.322E-06  nbox=  8
     iter. #   844  RMS(g-h-1)= 7.278E-06  nbox=  9
     iter. #   845  RMS(g-h-1)= 7.223E-06  nbox= 10
     iter. #   846  RMS(g-h-1)= 7.249E-06  nbox= 11
     iter. #   847  RMS(g-h-1)= 7.172E-06  nbox= 12
     iter. #   848  RMS(g-h-1)= 7.223E-06  nbox= 13
     iter. #   849  RMS(g-h-1)= 7.135E-06  nbox= 14
     iter. #   850  RMS(g-h-1)= 7.108E-06  nbox= 15
     iter. #   851  RMS(g-h-1)= 7.071E-06  nbox= 16
     iter. #   852  RMS(g-h-1)= 7.039E-06  nbox= 17
     iter. #   853  RMS(g-h-1)= 7.019E-06  nbox=  2
     iter. #   854  RMS(g-h-1)= 6.961E-06  nbox=  3
     iter. #   855  RMS(g-h-1)= 6.909E-06  nbox=  4
     iter. #   856  RMS(g-h-1)= 6.863E-06  nbox=  5
     iter. #   857  RMS(g-h-1)= 6.816E-06  nbox=  6
     iter. #   858  RMS(g-h-1)= 6.772E-06  nbox=  7
     iter. #   859  RMS(g-h-1)= 6.744E-06  nbox=  8
     iter. #   860  RMS(g-h-1)= 6.719E-06  nbox=  9
     iter. #   861  RMS(g-h-1)= 6.680E-06  nbox= 10
     iter. #   862  RMS(g-h-1)= 6.652E-06  nbox= 11
     iter. #   863  RMS(g-h-1)= 6.618E-06  nbox= 12
     iter. #   864  RMS(g-h-1)= 6.581E-06  nbox= 13
     iter. #   865  RMS(g-h-1)= 6.550E-06  nbox= 14
     iter. #   866  RMS(g-h-1)= 6.510E-06  nbox= 15
     iter. #   867  RMS(g-h-1)= 6.492E-06  nbox= 16
     iter. #   868  RMS(g-h-1)= 6.461E-06  nbox= 17
     iter. #   869  RMS(g-h-1)= 6.453E-06  nbox=  2
     iter. #   870  RMS(g-h-1)= 6.418E-06  nbox=  3
     iter. #   871  RMS(g-h-1)= 6.383E-06  nbox=  4
     iter. #   872  RMS(g-h-1)= 6.352E-06  nbox=  5
     iter. #   873  RMS(g-h-1)= 6.314E-06  nbox=  6
     iter. #   874  RMS(g-h-1)= 6.298E-06  nbox=  7

     End of Laue-RISM calculation


     convergence has been achieved in   874 iterations


     solvent charge    0.00285, renormalised to    0.00000

     Total number of solvent (in expand-cell)
     H2O           97.475532
     K+             1.612673
     OH-            1.611229

     Total charge of solvent (in expand-cell)
     H2O            0.000332 e
     K+             1.612673 e
     OH-           -1.610153 e
     Total          0.002852 e

     Chemical potential of solvation (in expand-cell)
     H2O        GaussFluct   0.148868E+01 kcal/mol
     K+         GaussFluct   0.187787E+01 kcal/mol
     OH-        GaussFluct  -0.125996E+01 kcal/mol
     Total      GaussFluct   0.210660E+01 kcal/mol

     Starting wfc are  332 randomized atomic wfcs
     Checking if some PAW data can be deallocated... 
       node    0, deallocated PAW data for type:  2
       node    0, deallocated PAW data for type:  3
       node    1, deallocated PAW data for type:  2
       node    1, deallocated PAW data for type:  3
       node    2, deallocated PAW data for type:  2
       node    2, deallocated PAW data for type:  3
       node    3, deallocated PAW data for type:  2
       node    3, deallocated PAW data for type:  3
       node    4, deallocated PAW data for type:  2
       node    4, deallocated PAW data for type:  3
       node    5, deallocated PAW data for type:  2
       node    5, deallocated PAW data for type:  3
       node    6, deallocated PAW data for type:  2
       node    6, deallocated PAW data for type:  3
       node    7, deallocated PAW data for type:  2
       node    7, deallocated PAW data for type:  3
       node    8, deallocated PAW data for type:  2
       node    8, deallocated PAW data for type:  3
       node    9, deallocated PAW data for type:  2
       node    9, deallocated PAW data for type:  3
[...]
     atom   19 type  1   force =    -0.00000532   -0.04957875   61.63611237
     atom   20 type  1   force =    -0.21025098   -0.12215944   65.56450993
     atom   21 type  1   force =     0.21025013   -0.12218220   65.56448164
     atom   22 type  1   force =     0.01521362   -0.00892972   62.69777100
     atom   23 type  1   force =    -0.00001652    0.24266823   65.56288646
     atom   24 type  1   force =    -0.01520067   -0.00893822   62.69781018
     atom   25 type  1   force =     0.04235177    0.02526962   61.63583028
     atom   26 type  1   force =    -0.04237126    0.02527177   61.63589248
     atom   27 type  1   force =     0.00001643    0.01845117   62.69890135
     atom   28 type  1   force =    -0.00000236    0.00224409  203.68840974
     atom   29 type  1   force =    -0.59338682   -0.75122625  202.93690925
     atom   30 type  1   force =     0.59338960   -0.75123663  202.93686865
     atom   31 type  1   force =    -0.95071617   -0.14229285  202.93219753
     atom   32 type  1   force =     0.00001058   -0.01021746  203.56260202
     atom   33 type  1   force =     0.95072337   -0.14230252  202.93222700
     atom   34 type  1   force =    -0.35735312    0.89547392  202.92749739
     atom   35 type  1   force =     0.35733930    0.89547486  202.92755297
     atom   36 type  1   force =     0.00001782    0.00228439  204.43256297
     atom   37 type  2   force =     0.00002396   -0.08686374   93.27944499
     atom   38 type  3   force =    -0.00003678    0.08878367  164.32227071
     The local contribution  to forces
     atom    1 type  1   force =     0.00000323   -0.00003167  217.60713402
     atom    2 type  1   force =     0.02311620   -0.02517271  217.76103340
     atom    3 type  1   force =    -0.02312130   -0.02517113  217.76102913
     atom    4 type  1   force =    -0.01018806    0.03265842  217.76110389
     atom    5 type  1   force =    -0.00000123    0.00010860  217.72428841
     atom    6 type  1   force =     0.01018786    0.03266216  217.76110887
     atom    7 type  1   force =    -0.03331061   -0.00752011  217.76111212
     atom    8 type  1   force =     0.03331264   -0.00751699  217.76112309
     atom    9 type  1   force =    -0.00000427   -0.00001987  217.84869501
     atom   10 type  1   force =     0.02246308    0.01300045   77.50406588
     atom   11 type  1   force =    -0.00000745   -0.16353467   77.20021773
     atom   12 type  1   force =    -0.02245459    0.01302033   77.50407344
     atom   13 type  1   force =    -0.14164704    0.08190026   77.20046053
     atom   14 type  1   force =     0.14165951    0.08191806   77.20044998
     atom   15 type  1   force =    -0.00001256    0.09686887   77.81442534
     atom   16 type  1   force =     0.00002321   -0.02610125   77.50410804
     atom   17 type  1   force =     0.08379313   -0.04853144   77.81433518
     atom   18 type  1   force =    -0.08381517   -0.04852761   77.81434754
     atom   19 type  1   force =     0.00000535    0.04483349  -61.66075451
     atom   20 type  1   force =     0.22366426    0.12985282  -65.56738527
     atom   21 type  1   force =    -0.22366353    0.12987545  -65.56735709
     atom   22 type  1   force =    -0.02315873    0.01350287  -62.72631792
     atom   23 type  1   force =     0.00001631   -0.25811678  -65.56589128
     atom   24 type  1   force =     0.02314594    0.01351135  -62.72635728
     atom   25 type  1   force =    -0.03820394   -0.02291148  -61.66044483
     atom   26 type  1   force =     0.03822328   -0.02291347  -61.66050721
     atom   27 type  1   force =    -0.00001637   -0.02754153  -62.72746886
     atom   28 type  1   force =     0.00000178   -0.00220578 -203.71950178
     atom   29 type  1   force =     0.57455504    0.72024442 -203.01792128
     atom   30 type  1   force =    -0.57455723    0.72025457 -203.01787945
     atom   31 type  1   force =     0.91479256    0.14155061 -203.01299357
     atom   32 type  1   force =    -0.00001060    0.01094494 -203.59062866
     atom   33 type  1   force =    -0.91479993    0.14155964 -203.01302327
     atom   34 type  1   force =     0.34026804   -0.86422701 -203.00808020
     atom   35 type  1   force =    -0.34025474   -0.86422843 -203.00813715
     atom   36 type  1   force =    -0.00001724   -0.00225484 -204.46464904
     atom   37 type  2   force =    -0.00002078    0.07959009  -94.15980095
     atom   38 type  3   force =     0.00002733   -0.06421312 -161.56919467
     The core correction contribution to forces
     atom    1 type  1   force =     0.00000000   -0.00000125    0.01936611
     atom    2 type  1   force =    -0.00022677    0.00004209    0.01940507
     atom    3 type  1   force =     0.00022676    0.00004209    0.01940507
     atom    4 type  1   force =    -0.00007601   -0.00021295    0.01940590
     atom    5 type  1   force =    -0.00000001    0.00000429    0.01895046
     atom    6 type  1   force =     0.00007601   -0.00021296    0.01940592
     atom    7 type  1   force =     0.00015064    0.00017199    0.01940606
     atom    8 type  1   force =    -0.00015065    0.00017200    0.01940605
     atom    9 type  1   force =     0.00000000   -0.00000372    0.01978435
     atom   10 type  1   force =     0.00024498    0.00014151    0.00009949
     atom   11 type  1   force =    -0.00000001   -0.00063941   -0.00036446
     atom   12 type  1   force =    -0.00024497    0.00014154    0.00009949
     atom   13 type  1   force =    -0.00055031    0.00032135   -0.00036690
     atom   14 type  1   force =     0.00055033    0.00032138   -0.00036687
     atom   15 type  1   force =    -0.00000002    0.00028232    0.00066459
     atom   16 type  1   force =     0.00000004   -0.00028561    0.00010506
     atom   17 type  1   force =     0.00024475   -0.00014054    0.00066586
     atom   18 type  1   force =    -0.00024478   -0.00014053    0.00066586
     atom   19 type  1   force =     0.00000002   -0.00034796   -0.00017906
     atom   20 type  1   force =     0.00157479    0.00090623    0.00096311
     atom   21 type  1   force =    -0.00157480    0.00090627    0.00096314
     atom   22 type  1   force =     0.00008213   -0.00005054    0.00047810
     atom   23 type  1   force =     0.00000002   -0.00182491    0.00098073
     atom   24 type  1   force =    -0.00008214   -0.00005053    0.00047811
     atom   25 type  1   force =     0.00030049    0.00017790   -0.00017905
     atom   26 type  1   force =    -0.00030046    0.00017793   -0.00017905
     atom   27 type  1   force =    -0.00000002    0.00010174    0.00048266
     atom   28 type  1   force =    -0.00000002    0.00000127   -0.01963615
     atom   29 type  1   force =    -0.00088481   -0.00170211   -0.02008370
     atom   30 type  1   force =     0.00088482   -0.00170207   -0.02008369
     atom   31 type  1   force =    -0.00190938    0.00008907   -0.02007873
     atom   32 type  1   force =    -0.00000010   -0.00005064    0.02504438
     atom   33 type  1   force =     0.00190933    0.00008906   -0.02007873
     atom   34 type  1   force =    -0.00102148    0.00160205   -0.02007769
     atom   35 type  1   force =     0.00102150    0.00160202   -0.02007769
     atom   36 type  1   force =    -0.00000003    0.00000293   -0.02027526
     atom   37 type  2   force =     0.00000010   -0.00016694   -0.01714648
     atom   38 type  3   force =    -0.00000007    0.00020454    0.02244651
     The Hubbard contrib.    to forces
     atom    1 type  1   force =     0.00000000    0.00000000    0.00000000
     atom    2 type  1   force =     0.00000000    0.00000000    0.00000000
     atom    3 type  1   force =     0.00000000    0.00000000    0.00000000
     atom    4 type  1   force =     0.00000000    0.00000000    0.00000000
     atom    5 type  1   force =     0.00000000    0.00000000    0.00000000
     atom    6 type  1   force =     0.00000000    0.00000000    0.00000000
     atom    7 type  1   force =     0.00000000    0.00000000    0.00000000
     atom    8 type  1   force =     0.00000000    0.00000000    0.00000000
     atom    9 type  1   force =     0.00000000    0.00000000    0.00000000
     atom   10 type  1   force =     0.00000000    0.00000000    0.00000000
     atom   11 type  1   force =     0.00000000    0.00000000    0.00000000
     atom   12 type  1   force =     0.00000000    0.00000000    0.00000000
     atom   13 type  1   force =     0.00000000    0.00000000    0.00000000
     atom   14 type  1   force =     0.00000000    0.00000000    0.00000000
     atom   15 type  1   force =     0.00000000    0.00000000    0.00000000
     atom   16 type  1   force =     0.00000000    0.00000000    0.00000000
     atom   17 type  1   force =     0.00000000    0.00000000    0.00000000
     atom   18 type  1   force =     0.00000000    0.00000000    0.00000000
     atom   19 type  1   force =     0.00000000    0.00000000    0.00000000
     atom   20 type  1   force =     0.00000000    0.00000000    0.00000000
     atom   21 type  1   force =     0.00000000    0.00000000    0.00000000
     atom   22 type  1   force =     0.00000000    0.00000000    0.00000000
     atom   23 type  1   force =     0.00000000    0.00000000    0.00000000
     atom   24 type  1   force =     0.00000000    0.00000000    0.00000000
     atom   25 type  1   force =     0.00000000    0.00000000    0.00000000
     atom   26 type  1   force =     0.00000000    0.00000000    0.00000000
     atom   27 type  1   force =     0.00000000    0.00000000    0.00000000
     atom   28 type  1   force =     0.00000000    0.00000000    0.00000000
     atom   29 type  1   force =     0.00000000    0.00000000    0.00000000
     atom   30 type  1   force =     0.00000000    0.00000000    0.00000000
     atom   31 type  1   force =     0.00000000    0.00000000    0.00000000
     atom   32 type  1   force =     0.00000000    0.00000000    0.00000000
     atom   33 type  1   force =     0.00000000    0.00000000    0.00000000
     atom   34 type  1   force =     0.00000000    0.00000000    0.00000000
     atom   35 type  1   force =     0.00000000    0.00000000    0.00000000
     atom   36 type  1   force =     0.00000000    0.00000000    0.00000000
     atom   37 type  2   force =     0.00000000    0.00000000    0.00000000
     atom   38 type  3   force =     0.00000000    0.00000000    0.00000000
     The SCF correction term to forces
     atom    1 type  1   force =     0.00000000    0.00000000    0.00000000
     atom    2 type  1   force =     0.00000000    0.00000000    0.00000000
     atom    3 type  1   force =     0.00000000    0.00000000    0.00000000
     atom    4 type  1   force =     0.00000000    0.00000000    0.00000000
     atom    5 type  1   force =     0.00000000    0.00000000    0.00000000
     atom    6 type  1   force =     0.00000000    0.00000000    0.00000000
     atom    7 type  1   force =     0.00000000    0.00000000    0.00000000
     atom    8 type  1   force =     0.00000000    0.00000000    0.00000000
     atom    9 type  1   force =     0.00000000    0.00000000    0.00000000
     atom   10 type  1   force =     0.00000006    0.00000004   -0.00000293
     atom   11 type  1   force =     0.00000000   -0.00000008   -0.00000294
     atom   12 type  1   force =    -0.00000006    0.00000003   -0.00000291
     atom   13 type  1   force =    -0.00000006    0.00000014   -0.00000293
     atom   14 type  1   force =     0.00000006    0.00000014   -0.00000292
     atom   15 type  1   force =     0.00000000    0.00000026   -0.00000289
     atom   16 type  1   force =    -0.00000001   -0.00000017   -0.00000291
     atom   17 type  1   force =     0.00000014   -0.00000018   -0.00000289
     atom   18 type  1   force =    -0.00000014   -0.00000017   -0.00000290
     atom   19 type  1   force =     0.00000001    0.00000022   -0.00000381
     atom   20 type  1   force =     0.00000007    0.00000011   -0.00000367
     atom   21 type  1   force =    -0.00000007    0.00000011   -0.00000367
     atom   22 type  1   force =    -0.00000012    0.00000010   -0.00000378
     atom   23 type  1   force =     0.00000000   -0.00000003   -0.00000368
     atom   24 type  1   force =     0.00000012    0.00000010   -0.00000378
     atom   25 type  1   force =    -0.00000013   -0.00000020   -0.00000382
     atom   26 type  1   force =     0.00000013   -0.00000018   -0.00000381
     atom   27 type  1   force =     0.00000000   -0.00000024   -0.00000377
     atom   28 type  1   force =     0.00000000   -0.00000007   -0.00000251
     atom   29 type  1   force =     0.00000012   -0.00000005   -0.00000267
     atom   30 type  1   force =    -0.00000013   -0.00000006   -0.00000265
     atom   31 type  1   force =     0.00000007    0.00000018   -0.00000271
     atom   32 type  1   force =     0.00000001    0.00000008   -0.00000272
     atom   33 type  1   force =    -0.00000006    0.00000019   -0.00000270
     atom   34 type  1   force =    -0.00000005   -0.00000014   -0.00000269
     atom   35 type  1   force =     0.00000005   -0.00000013   -0.00000271
     atom   36 type  1   force =    -0.00000001   -0.00000001   -0.00000272
     atom   37 type  2   force =     0.00000000    0.00000001   -0.00000079
     atom   38 type  3   force =     0.00000001    0.00000000   -0.00000137

     3D-RISM Solvation contribution to forces:
     atom    1 type  1   force =     0.00000001    0.00000013    0.00000698
     atom    2 type  1   force =     0.00001196    0.00002360    0.00003139
     atom    3 type  1   force =    -0.00001195    0.00002362    0.00003139
     atom    4 type  1   force =     0.00002631   -0.00000161    0.00003122
     atom    5 type  1   force =     0.00000004   -0.00000021    0.00008318
     atom    6 type  1   force =    -0.00002632   -0.00000159    0.00003130
     atom    7 type  1   force =     0.00001437   -0.00002200    0.00003099
     atom    8 type  1   force =    -0.00001434   -0.00002201    0.00003108
     atom    9 type  1   force =    -0.00000003    0.00000008    0.00000187
     atom   10 type  1   force =     0.00014149    0.00008149    0.00004085
     atom   11 type  1   force =     0.00000002    0.00019899    0.00030947
     atom   12 type  1   force =    -0.00014143    0.00008158    0.00004086
     atom   13 type  1   force =     0.00017243   -0.00010087    0.00030681
     atom   14 type  1   force =    -0.00017231   -0.00010082    0.00030685
     atom   15 type  1   force =    -0.00000007   -0.00005399   -0.00004890
     atom   16 type  1   force =     0.00000010   -0.00016185    0.00003866
     atom   17 type  1   force =    -0.00004571    0.00002775   -0.00004867
     atom   18 type  1   force =     0.00004564    0.00002779   -0.00004871
     atom   19 type  1   force =     0.00000009    0.00027051   -0.00044315
     atom   20 type  1   force =     0.00102426    0.00058179    0.00204340
     atom   21 type  1   force =    -0.00102416    0.00058194    0.00204343
     atom   22 type  1   force =     0.00116710   -0.00067708   -0.00006775
     atom   23 type  1   force =     0.00000018   -0.00118392    0.00202060
     atom   24 type  1   force =    -0.00116713   -0.00067699   -0.00006747
     atom   25 type  1   force =    -0.00023968   -0.00012876   -0.00044636
     atom   26 type  1   force =     0.00023993   -0.00012881   -0.00044609
     atom   27 type  1   force =    -0.00000009    0.00135998   -0.00005612
     atom   28 type  1   force =     0.00000053    0.00000579   -0.01742300
     atom   29 type  1   force =     0.00532952    0.01031537    0.00347103
     atom   30 type  1   force =    -0.00533003    0.01031602    0.00347025
     atom   31 type  1   force =     0.01152724   -0.00058278    0.00342270
     atom   32 type  1   force =     0.00000043   -0.00015420    0.00842999
     atom   33 type  1   force =    -0.01152766   -0.00058217    0.00342322
     atom   34 type  1   force =     0.00619720   -0.00966054    0.00335773
     atom   35 type  1   force =    -0.00619657   -0.00966045    0.00335904
     atom   36 type  1   force =    -0.00000065   -0.00000442   -0.01935538
     atom   37 type  2   force =     0.00000018   -0.00026311   -0.02150920
     atom   38 type  3   force =     0.00000007   -0.00077336   -0.08231892

     Total force =     0.001188     Total SCF correction =     0.000016

     Total 3D-RISM Solvation Force =     0.094245

     Writing output data file Cu-vib.save
 
     init_run     :    387.98s CPU    197.05s WALL (       1 calls)
     electrons    :   7081.43s CPU   3606.19s WALL (       1 calls)
     forces       :     26.80s CPU     13.30s WALL (       1 calls)

     Called by init_run:
     wfcinit      :     58.23s CPU     30.33s WALL (       1 calls)
     wfcinit:atom :      0.02s CPU      0.02s WALL (      34 calls)
     wfcinit:wfcr :     56.80s CPU     29.99s WALL (      34 calls)
     potinit      :    321.15s CPU    162.06s WALL (       1 calls)

     Called by electrons:
     c_bands      :   3930.45s CPU   2017.77s WALL (      34 calls)
     sum_band     :    548.27s CPU    281.08s WALL (      34 calls)
     v_of_rho     :     43.46s CPU     22.12s WALL (      34 calls)
     v_h          :      0.54s CPU      0.54s WALL (      68 calls)
     v_xc         :     44.84s CPU     22.46s WALL (      35 calls)
     newd         :      2.27s CPU      1.24s WALL (      34 calls)
     PAW_pot      :      7.92s CPU      2.82s WALL (      34 calls)
     mix_rho      :      0.57s CPU      0.57s WALL (      34 calls)

     Called by c_bands:
     init_us_2    :      1.98s CPU      1.54s WALL (    2380 calls)
     crmmdiagg    :   2560.62s CPU   1284.31s WALL (    1156 calls)
     wfcrot       :   1359.15s CPU    720.43s WALL (    1122 calls)
     gsorth       :     61.77s CPU     40.50s WALL (    1156 calls)

     Called by sum_band:
     sum_band:bec :      4.30s CPU      1.23s WALL (    1156 calls)
     addusdens    :      1.23s CPU      1.23s WALL (      34 calls)

     Called by *rmmdiagg:
     h_psi        :   3542.05s CPU   1792.02s WALL (    9974 calls)
     s_psi        :     48.09s CPU     26.98s WALL (    9974 calls)
     cdiaghg      :    125.19s CPU     80.56s WALL (    1122 calls)
     cdiaghg:chol :      5.90s CPU      2.83s WALL (    1122 calls)
     cdiaghg:inve :      2.86s CPU      1.84s WALL (    1122 calls)
     cdiaghg:para :      2.78s CPU      1.76s WALL (    2244 calls)

     Called by h_psi:
     h_psi:pot    :   3539.12s CPU   1790.63s WALL (    9974 calls)
     h_psi:calbec :    124.60s CPU     68.06s WALL (    9974 calls)
     vloc_psi     :   3360.74s CPU   1694.66s WALL (    9974 calls)
     add_vuspsi   :     52.55s CPU     27.73s WALL (    9974 calls)

     General routines
     calbec       :    158.42s CPU     87.50s WALL (   11266 calls)
     fft          :     33.65s CPU     15.90s WALL (    2408 calls)
     ffts         :      0.16s CPU      0.16s WALL (      68 calls)
     fftw         :   3802.63s CPU   1911.18s WALL ( 1969494 calls)
     fftc         :      1.18s CPU      0.15s WALL (      68 calls)
     interpolate  :      1.64s CPU      0.60s WALL (      68 calls)
 
     Parallel routines
     fft_scatter  :   2648.40s CPU   1452.36s WALL ( 2069830 calls)

     PAW routines
     PAW_pot      :      7.92s CPU      2.82s WALL (      34 calls)

     RISM routines
     1DRISM_pre   :     27.71s CPU     14.30s WALL (       1 calls)
     1DRISM_run   :      1.04s CPU      1.18s WALL (       1 calls)
     3DRISM_pre   :     10.64s CPU      6.32s WALL (       1 calls)
     3DRISM_run   :   2852.50s CPU   1433.65s WALL (      34 calls)
     3DRISM_for   :      6.00s CPU      2.89s WALL (       1 calls)
     3DRISM_vsol  :      0.22s CPU      0.22s WALL (      34 calls)
 
     PWSCF        :     2h 7m CPU        1h 5m WALL

 
   This run was terminated on:  20:10: 1  10Feb2026            

=------------------------------------------------------------------------------=
   JOB DONE.
=------------------------------------------------------------------------------=
