
     Program PWSCF v.6.1 starts on 10Feb2026 at 16:53: 3 

     This program is part of the open-source Quantum ESPRESSO suite
     for quantum simulation of materials; please cite
         "P. Giannozzi et al., J. Phys.:Condens. Matter 21 395502 (2009);
          URL http://www.quantum-espresso.org", 
     in publications or presentations arising from this work. More details at
     http://www.quantum-espresso.org/quote

     Parallel version (MPI & OpenMP), running on     480 processor cores
     Number of MPI processes:               240
     Threads/MPI process:                     2
     R & G space division:  proc/nbgrp/npool/nimage =     240
     Reading input from espresso.pwi

     Current dimensions of program PWSCF are:
     Max number of different atomic species (ntypx) = 10
     Max number of k-points (npk) =  40000
     Max angular momentum in pseudopotentials (lmaxx) =  3

     IMPORTANT: XC functional enforced from input :
     Exchange-correlation      = VDW-DF2 ( 1  4 13  0 2 0)
     Any further DFT definition will be discarded
     Please, verify this is what you really want

               file Cu.pbe-dn-kjpaw_psl.1.0.0.UPF: wavefunction(s)  4S 3D renormalized
               file C.pbe-n-kjpaw_psl.1.0.0.UPF: wavefunction(s)  2S 2P renormalized
               file O.pbe-n-kjpaw_psl.1.0.0.UPF: wavefunction(s)  2S 2P renormalized
     Message from routine iosys_1drism:
     default density from MOL file(H2O.tip5p.MOL) is used

     Subspace diagonalization in iterative solution of the eigenvalue problem:
     one sub-group per band group will be used
     ELPA distributed-memory algorithm (size of sub-group: 10* 10 procs)


     Molecule # 1 for H2O read from file:
     /work/gf93/f93007/QE/pseudo/H2O.tip5p.MOL
     Density:
         0.72794769E+02 cell^-1
         0.49533750E-02 bohr^-3
         0.55506881E+02 mol/L
         0.99997200E+00 g/cm^3
     Permittivity:
        78.355300
     Number of atoms:   5
     Atoms:
       #  atom      X (angs)      Y (angs)      Z (angs)      Q (e)         E (kcal/mol)  S (angs)
       1  O/h2o     0.00000000    0.00000000    0.00000000    0.00000000    0.16000000    3.12000000
       2  H/h2o     0.75695000    0.58588000    0.00000000    0.24100000    0.04600000    1.00000000
       3  H/h2o    -0.75695000    0.58588000    0.00000000    0.24100000    0.04600000    1.00000000
       4  L/h2o     0.00000000   -0.40415000    0.57154000   -0.24100000    0.04600000    1.80000000
       5  L/h2o     0.00000000   -0.40415000   -0.57154000   -0.24100000    0.04600000    1.80000000


     Molecule # 2 for K+ read from file:
     /work/gf93/f93007/QE/pseudo/K+.oplsaa.MOL
     Density:
         0.13114549E+01 cell^-1
         0.89238936E-04 bohr^-3
         0.10000000E+01 mol/L
         0.39098300E-01 g/cm^3
     Number of atoms:   1
     Atoms:
       #  atom      X (angs)      Y (angs)      Z (angs)      Q (e)         E (kcal/mol)  S (angs)
       1  K         0.00000000    0.00000000    0.00000000    1.00000000    0.00032800    4.93462800


     Molecule # 3 for OH- read from file:
     /work/gf93/f93007/QE/pseudo/OH-.oplsaa.MOL
     Density:
         0.13114549E+01 cell^-1
         0.89238936E-04 bohr^-3
         0.10000000E+01 mol/L
         0.17007340E-01 g/cm^3
     Number of atoms:   2
     Atoms:
       #  atom      X (angs)      Y (angs)      Z (angs)      Q (e)         E (kcal/mol)  S (angs)
       1  O/oh      0.00000000    0.00000000    0.00000000   -1.30000000    0.25000000    3.20000000
       2  H/oh      0.95300000    0.00000000    0.00000000    0.30000000    0.04600000    1.00000000


     Number of total sites:   8
     Index site -> solvent: 
       1  1  1  1  1  2  3  3
     Index site -> atom (in a solvent): 
       1  2  3  4  5  1  1  2


     Number of unique sites:   6
     Multiplicity of unique site: 
       1  2  2  1  1  1
     Index unique site -> site: 
       1:  1
       2:  2  3
       3:  4  5
       4:  6
       5:  7
       6:  8


     1D-RISM info
     ------------
     closure equation        =           KH
     temperature             =     300.0000  kelvin
     coulomb smearing radius =       2.0000  bohr
     number of solvent sites =            8
     nv * (nv + 1) / 2       =           36
     number of grids         =         8345
     maximum of R-space      =     999.8802  bohr
     maximum of G-space      =      26.2150  bohr^-1
     #R-grids in local       =           66
     #G-grids in local       =           66
     number of iterations    =       100000
     convergence threshold   =      1.0E-08
     Gaussian width of bonds =       0.2530  bohr
     size of MDIIS           =           20
     step of MDIIS           =       0.1000
     number of processes     =          128


     Radial FFT:
     number of radial grids   =         8345
     number of FFT grids      =        16689
     good number of FFT grids =           -1
     R-space grids:
       0.00000000E+00  0.11983223E+00  0.23966447E+00  0.35949670E+00  0.47932894E+00
       0.59916117E+00  0.71899341E+00  0.83882564E+00  0.95865788E+00  0.10784901E+01
       ..............  ..............  ..............  ..............  ..............
       0.99880168E+03  0.99892151E+03  0.99904134E+03  0.99916117E+03  0.99928101E+03
       0.99940084E+03  0.99952067E+03  0.99964050E+03  0.99976034E+03  0.99988017E+03
     G-space grids:
       0.00000000E+00  0.31417809E-02  0.62835618E-02  0.94253427E-02  0.12567124E-01
       0.15708904E-01  0.18850685E-01  0.21992466E-01  0.25134247E-01  0.28276028E-01
       ..............  ..............  ..............  ..............  ..............
       0.26186744E+02  0.26189886E+02  0.26193027E+02  0.26196169E+02  0.26199311E+02
       0.26202453E+02  0.26205594E+02  0.26208736E+02  0.26211878E+02  0.26215020E+02


     MPI for site:
     number of site groups     =          128
     #procs in a site group    =            1
     this proc in a site group =            0
     the root in a site group  =            0
     this site group           =            0
     inter-site group comm.    =           20
     intra-site group comm.    =            2
     total number of sites     =           36
     starting index of sites   =            1
     ending index of sites     =            1


     MPI for task:
     #procs in a task group    =          128
     this proc in a task group =            0
     the root in a task group  =            0
     task group comm.          =           20
     total number of vectors   =         8345
     starting index of vectors =            1
     ending index of vectors   =           66
     lengths of vectors        = 
        66   66   66   66   66   66   66   66   66   66
        66   66   66   66   66   66   66   66   66   66
        66   66   66   66   66   65   65   65   65   65
        65   65   65   65   65   65   65   65   65   65
        65   65   65   65   65   65   65   65   65   65
        65   65   65   65   65   65   65   65   65   65
        65   65   65   65   65   65   65   65   65   65
        65   65   65   65   65   65   65   65   65   65
        65   65   65   65   65   65   65   65   65   65
        65   65   65   65   65   65   65   65   65   65
        65   65   65   65   65   65   65   65   65   65
        65   65   65   65   65   65   65   65   65   65
        65   65   65   65   65   65   65   65
     displacement of vectors   = 
         0   66  132  198  264  330  396  462  528  594
       660  726  792  858  924  990 1056 1122 1188 1254
      1320 1386 1452 1518 1584 1650 1715 1780 1845 1910
      1975 2040 2105 2170 2235 2300 2365 2430 2495 2560
      2625 2690 2755 2820 2885 2950 3015 3080 3145 3210
      3275 3340 3405 3470 3535 3600 3665 3730 3795 3860
      3925 3990 4055 4120 4185 4250 4315 4380 4445 4510
      4575 4640 4705 4770 4835 4900 4965 5030 5095 5160
      5225 5290 5355 5420 5485 5550 5615 5680 5745 5810
      5875 5940 6005 6070 6135 6200 6265 6330 6395 6460
      6525 6590 6655 6720 6785 6850 6915 6980 7045 7110
      7175 7240 7305 7370 7435 7500 7565 7630 7695 7760
      7825 7890 7955 8020 8085 8150 8215 8280


     Correlation function is read from file


     1D-RISM Calculation

     iter. #     1  RMS(g-h-1)= 9.995E-09  nbox=  0  T=  300.00K

     End of 1D-RISM calculation


     convergence has been achieved in     1 iterations


     Chemical potential of solvation

     H2O        H2O        Closure      0.106068E+01 kcal/mol
                           GaussFluct  -0.737993E+01 kcal/mol

                K+         Closure     -0.288345E+00 kcal/mol
                           GaussFluct  -0.358438E+00 kcal/mol

                OH-        Closure     -0.764259E+00 kcal/mol
                           GaussFluct  -0.855991E+00 kcal/mol

                Total      Closure      0.808077E-02 kcal/mol
                           GaussFluct  -0.859435E+01 kcal/mol

     K+         H2O        Closure     -0.160051E+02 kcal/mol
                           GaussFluct  -0.198958E+02 kcal/mol

                K+         Closure      0.351561E+06 kcal/mol
                           GaussFluct   0.351561E+06 kcal/mol

                OH-        Closure     -0.351612E+06 kcal/mol
                           GaussFluct  -0.351612E+06 kcal/mol

                Total      Closure     -0.668098E+02 kcal/mol
                           GaussFluct  -0.707592E+02 kcal/mol

     OH-        H2O        Closure     -0.424217E+02 kcal/mol
                           GaussFluct  -0.475134E+02 kcal/mol

                K+         Closure     -0.351612E+06 kcal/mol
                           GaussFluct  -0.351612E+06 kcal/mol

                OH-        Closure      0.351561E+06 kcal/mol
                           GaussFluct   0.351561E+06 kcal/mol

                Total      Closure     -0.934347E+02 kcal/mol
                           GaussFluct  -0.986502E+02 kcal/mol

 
     Parallelization info
     --------------------
     sticks:   dense  smooth     PW     G-vecs:    dense   smooth      PW
     Min          40      16      4                16136     4064     568
     Max          41      17      5                16171     4100     615
     Sum        9661    3865   1057              3875677   980529  140539
 

     Title: 
     Cu-vib                                                                     


     bravais-lattice index     =            0
     lattice parameter (alat)  =      14.9832  a.u.
     unit-cell volume          =   14695.9939 (a.u.)^3
     number of atoms/cell      =           38
     number of atomic types    =            3
     number of electrons       =       406.00
     number of Kohn-Sham states=          244
     kinetic-energy cutoff     =      62.4738  Ry
     charge density cutoff     =     624.7385  Ry
     convergence threshold     =      7.3E-12
     mixing beta               =       0.3333
     number of iterations used =           12  plain     mixing
     Exchange-correlation      = VDW-DF2 ( 1  4 13  0 2 0)

     Effective Screening Medium Method
     =================================
     Boundary Conditions: Vacuum-Slab-Vacuum
     total charge in unit cell        =   0.0000
     grid points for fit at edges     =        4 
 

     celldm(1)=  14.983209  celldm(2)=   0.000000  celldm(3)=   0.000000
     celldm(4)=   0.000000  celldm(5)=   0.000000  celldm(6)=   0.000000

     crystal axes: (cart. coord. in units of alat)
               a(1) = (   1.000000   0.000000   0.000000 )  
               a(2) = (   0.500000   0.866025   0.000000 )  
               a(3) = (   0.000000   0.000000   5.044917 )  

     reciprocal axes: (cart. coord. in units 2 pi/alat)
               b(1) = (  1.000000 -0.577351  0.000000 )  
               b(2) = (  0.000000  1.154701  0.000000 )  
               b(3) = (  0.000000  0.000000  0.198219 )  


     PseudoPot. # 1 for Cu read from file:
     /work/gf93/f93007/QE/pseudo/Cu.pbe-dn-kjpaw_psl.1.0.0.UPF
     MD5 check sum: 67c40f9e1593dc2d139023e70404cc2a
     Pseudo is Projector augmented-wave + core cor, Zval = 11.0
     Generated using "atomic" code by A. Dal Corso  v.6.1 svn rev. 13369
     Shape of augmentation charge: PSQ
     Using radial grid of 1199 points,  6 beta functions with: 
                l(1) =   0
                l(2) =   0
                l(3) =   1
                l(4) =   1
                l(5) =   2
                l(6) =   2
     Q(r) pseudized with 0 coefficients 


     PseudoPot. # 2 for  C read from file:
     /work/gf93/f93007/QE/pseudo/C.pbe-n-kjpaw_psl.1.0.0.UPF
     MD5 check sum: 92a742b3ac0ce1af44b5aa3f9352ca21
     Pseudo is Projector augmented-wave + core cor, Zval =  4.0
     Generated using "atomic" code by A. Dal Corso  v.6.1 svn rev. 13369
     Shape of augmentation charge: PSQ
     Using radial grid of 1073 points,  4 beta functions with: 
                l(1) =   0
                l(2) =   0
                l(3) =   1
                l(4) =   1
     Q(r) pseudized with 0 coefficients 


     PseudoPot. # 3 for  O read from file:
     /work/gf93/f93007/QE/pseudo/O.pbe-n-kjpaw_psl.1.0.0.UPF
     MD5 check sum: c61d840054b6bba219e553541e327118
     Pseudo is Projector augmented-wave + core cor, Zval =  6.0
     Generated using "atomic" code by A. Dal Corso  v.6.1 svn rev. 13369
     Shape of augmentation charge: PSQ
     Using radial grid of 1095 points,  4 beta functions with: 
                l(1) =   0
                l(2) =   0
                l(3) =   1
                l(4) =   1
     Q(r) pseudized with 0 coefficients 


     vdW kernel table read from file vdW_kernel_table
     MD5 check sum: 6d69797d2e858e93e031fb7d16d30e50

     atomic species   valence    mass     pseudopotential
        Cu            11.00    63.54600     Cu( 1.00)
        C              4.00    12.01100      C( 1.00)
        O              6.00    15.99900      O( 1.00)

     No symmetry found


                                    s                        frac. trans.

      isym =  1     identity                                     

 cryst.   s( 1) = (     1          0          0      )
                  (     0          1          0      )
                  (     0          0          1      )

 cart.    s( 1) = (  1.0000000  0.0000000  0.0000000 )
                  (  0.0000000  1.0000000  0.0000000 )
                  (  0.0000000  0.0000000  1.0000000 )


   Cartesian axes

     site n.     atom                  positions (alat units)
         1           Cu  tau(   1) = (   0.0000000   0.0000000  -0.8248888  )
         2           Cu  tau(   2) = (   0.3333333   0.0000000  -0.8248888  )
         3           Cu  tau(   3) = (   0.6666667   0.0000000  -0.8248888  )
         4           Cu  tau(   4) = (   0.1666667   0.2886751  -0.8248888  )
         5           Cu  tau(   5) = (   0.5000000   0.2886751  -0.8248888  )
         6           Cu  tau(   6) = (   0.8333333   0.2886751  -0.8248888  )
         7           Cu  tau(   7) = (   0.3333333   0.5773503  -0.8248888  )
         8           Cu  tau(   8) = (   0.6666667   0.5773503  -0.8248888  )
         9           Cu  tau(   9) = (   1.0000000   0.5773503  -0.8248888  )
        10           Cu  tau(  10) = (   0.1679527   0.0969677  -0.5550278  )
        11           Cu  tau(  11) = (   0.5000001   0.0963555  -0.5546924  )
        12           Cu  tau(  12) = (   0.8320475   0.0969677  -0.5550278  )
        13           Cu  tau(  13) = (   0.3334463   0.3848350  -0.5546924  )
        14           Cu  tau(  14) = (   0.6665540   0.3848351  -0.5546924  )
        15           Cu  tau(  15) = (   1.0000000   0.3851225  -0.5554971  )
        16           Cu  tau(  16) = (   0.5000002   0.6720902  -0.5550277  )
        17           Cu  tau(  17) = (   0.8335259   0.6734639  -0.5554970  )
        18           Cu  tau(  18) = (   1.1664742   0.6734639  -0.5554970  )
        19           Cu  tau(  19) = (   0.0000002   0.1919045  -0.2895402  )
        20           Cu  tau(  20) = (   0.3359748   0.1939752  -0.2811846  )
        21           Cu  tau(  21) = (   0.6640256   0.1939752  -0.2811846  )
        22           Cu  tau(  22) = (   0.1667941   0.4810516  -0.2872685  )
        23           Cu  tau(  23) = (   0.5000002   0.4780753  -0.2811846  )
        24           Cu  tau(  24) = (   0.8332061   0.4810517  -0.2872684  )
        25           Cu  tau(  25) = (   0.3338062   0.7700731  -0.2895404  )
        26           Cu  tau(  26) = (   0.6661942   0.7700731  -0.2895403  )
        27           Cu  tau(  27) = (   1.0000001   0.7699472  -0.2872685  )
        28           Cu  tau(  28) = (   0.0000000   0.0000002  -0.0207473  )
        29           Cu  tau(  29) = (   0.3317716  -0.0034666  -0.0198287  )
        30           Cu  tau(  30) = (   0.6682285  -0.0034665  -0.0198288  )
        31           Cu  tau(  31) = (   0.1628835   0.2890560  -0.0198289  )
        32           Cu  tau(  32) = (   0.5000001   0.2886752   0.0000000  )
        33           Cu  tau(  33) = (   0.8371164   0.2890560  -0.0198289  )
        34           Cu  tau(  34) = (   0.3311120   0.5804359  -0.0198289  )
        35           Cu  tau(  35) = (   0.6688881   0.5804359  -0.0198288  )
        36           Cu  tau(  36) = (   1.0000000   0.5773501  -0.0191733  )
        37           C   tau(  37) = (   0.4999994   0.2886747   0.2397149  )
        38           O   tau(  38) = (   0.5012601   0.2886744   0.3848034  )

   Crystallographic axes

     site n.     atom                  positions (cryst. coord.)
         1           Cu  tau(   1) = (  0.0000000  0.0000000 -0.1635089  )
         2           Cu  tau(   2) = (  0.3333333  0.0000000 -0.1635089  )
         3           Cu  tau(   3) = (  0.6666667  0.0000000 -0.1635089  )
         4           Cu  tau(   4) = ( -0.0000001  0.3333335 -0.1635089  )
         5           Cu  tau(   5) = (  0.3333333  0.3333335 -0.1635089  )
         6           Cu  tau(   6) = (  0.6666666  0.3333335 -0.1635089  )
         7           Cu  tau(   7) = ( -0.0000002  0.6666670 -0.1635089  )
         8           Cu  tau(   8) = (  0.3333332  0.6666670 -0.1635089  )
         9           Cu  tau(   9) = (  0.6666665  0.6666670 -0.1635089  )
        10           Cu  tau(  10) = (  0.1119684  0.1119687 -0.1100172  )
        11           Cu  tau(  11) = (  0.4443691  0.1112618 -0.1099508  )
        12           Cu  tau(  12) = (  0.7760631  0.1119687 -0.1100172  )
        13           Cu  tau(  13) = (  0.1112615  0.4443694 -0.1099508  )
        14           Cu  tau(  14) = (  0.4443692  0.4443695 -0.1099507  )
        15           Cu  tau(  15) = (  0.7776494  0.4447013 -0.1101102  )
        16           Cu  tau(  16) = (  0.1119685  0.7760633 -0.1100172  )
        17           Cu  tau(  17) = (  0.4447012  0.7776495 -0.1101102  )
        18           Cu  tau(  18) = (  0.7776494  0.7776495 -0.1101102  )
        19           Cu  tau(  19) = ( -0.1107960  0.2215923 -0.0573925  )
        20           Cu  tau(  20) = (  0.2239831  0.2239834 -0.0557362  )
        21           Cu  tau(  21) = (  0.5520338  0.2239834 -0.0557362  )
        22           Cu  tau(  22) = ( -0.1109413  0.5554709 -0.0569422  )
        23           Cu  tau(  23) = (  0.2239831  0.5520341 -0.0557362  )
        24           Cu  tau(  24) = (  0.5554707  0.5554709 -0.0569421  )
        25           Cu  tau(  25) = ( -0.1107959  0.8892042 -0.0573925  )
        26           Cu  tau(  26) = (  0.2215921  0.8892042 -0.0573925  )
        27           Cu  tau(  27) = (  0.5554707  0.8890589 -0.0569422  )
        28           Cu  tau(  28) = ( -0.0000001  0.0000002 -0.0041125  )
        29           Cu  tau(  29) = (  0.3337730 -0.0040029 -0.0039304  )
        30           Cu  tau(  30) = (  0.6702299 -0.0040028 -0.0039305  )
        31           Cu  tau(  31) = ( -0.0040031  0.3337733 -0.0039305  )
        32           Cu  tau(  32) = (  0.3333333  0.3333336  0.0000000  )
        33           Cu  tau(  33) = (  0.6702298  0.3337733 -0.0039305  )
        34           Cu  tau(  34) = ( -0.0040030  0.6702300 -0.0039305  )
        35           Cu  tau(  35) = (  0.3337731  0.6702300 -0.0039305  )
        36           Cu  tau(  36) = (  0.6666666  0.6666667 -0.0038005  )
        37           C   tau(  37) = (  0.3333329  0.3333330  0.0475161  )
        38           O   tau(  38) = (  0.3345938  0.3333326  0.0762755  )

     number of k points=    34  Marzari-Vanderbilt smearing, width (Ry)=  0.0073
                       cart. coord. in units 2pi/alat
        k(    1) = (   0.0000000   0.0000000   0.0000000), wk =   0.0312500
        k(    2) = (   0.0000000   0.1443376   0.0000000), wk =   0.0625000
        k(    3) = (   0.0000000   0.2886753   0.0000000), wk =   0.0625000
        k(    4) = (   0.0000000   0.4330129   0.0000000), wk =   0.0625000
        k(    5) = (   0.0000000  -0.5773505   0.0000000), wk =   0.0312500
        k(    6) = (   0.1250000  -0.0721688   0.0000000), wk =   0.0625000
        k(    7) = (   0.1250000   0.0721688   0.0000000), wk =   0.0625000
        k(    8) = (   0.1250000   0.2165065   0.0000000), wk =   0.0625000
        k(    9) = (   0.1250000   0.3608441   0.0000000), wk =   0.0625000
        k(   10) = (   0.1250000  -0.6495194   0.0000000), wk =   0.0625000
        k(   11) = (   0.1250000  -0.5051817   0.0000000), wk =   0.0625000
        k(   12) = (   0.1250000  -0.3608441   0.0000000), wk =   0.0625000
        k(   13) = (   0.1250000  -0.2165065   0.0000000), wk =   0.0625000
        k(   14) = (   0.2500000  -0.1443376   0.0000000), wk =   0.0625000
        k(   15) = (   0.2500000   0.0000000   0.0000000), wk =   0.0625000
        k(   16) = (   0.2500000   0.1443376   0.0000000), wk =   0.0625000
        k(   17) = (   0.2500000   0.2886753   0.0000000), wk =   0.0625000
        k(   18) = (   0.2500000  -0.7216882   0.0000000), wk =   0.0625000
        k(   19) = (   0.2500000  -0.5773505   0.0000000), wk =   0.0625000
        k(   20) = (   0.2500000  -0.4330129   0.0000000), wk =   0.0625000
        k(   21) = (   0.2500000  -0.2886753   0.0000000), wk =   0.0625000
        k(   22) = (   0.3750000  -0.2165065   0.0000000), wk =   0.0625000
        k(   23) = (   0.3750000  -0.0721688   0.0000000), wk =   0.0625000
        k(   24) = (   0.3750000   0.0721688   0.0000000), wk =   0.0625000
        k(   25) = (   0.3750000   0.2165065   0.0000000), wk =   0.0625000
        k(   26) = (   0.3750000  -0.7938570   0.0000000), wk =   0.0625000
        k(   27) = (   0.3750000  -0.6495194   0.0000000), wk =   0.0625000
        k(   28) = (   0.3750000  -0.5051817   0.0000000), wk =   0.0625000
        k(   29) = (   0.3750000  -0.3608441   0.0000000), wk =   0.0625000
        k(   30) = (  -0.5000000   0.2886753   0.0000000), wk =   0.0312500
        k(   31) = (  -0.5000000   0.4330129   0.0000000), wk =   0.0625000
        k(   32) = (  -0.5000000   0.5773505   0.0000000), wk =   0.0625000
        k(   33) = (  -0.5000000   0.7216882   0.0000000), wk =   0.0625000
        k(   34) = (  -0.5000000  -0.2886753   0.0000000), wk =   0.0312500

                       cryst. coord.
        k(    1) = (   0.0000000   0.0000000   0.0000000), wk =   0.0312500
        k(    2) = (   0.0000000   0.1250000   0.0000000), wk =   0.0625000
        k(    3) = (   0.0000000   0.2500000   0.0000000), wk =   0.0625000
        k(    4) = (   0.0000000   0.3750000   0.0000000), wk =   0.0625000
        k(    5) = (   0.0000000  -0.5000000   0.0000000), wk =   0.0312500
        k(    6) = (   0.1250000   0.0000000   0.0000000), wk =   0.0625000
        k(    7) = (   0.1250000   0.1250000   0.0000000), wk =   0.0625000
        k(    8) = (   0.1250000   0.2500000   0.0000000), wk =   0.0625000
        k(    9) = (   0.1250000   0.3750000   0.0000000), wk =   0.0625000
        k(   10) = (   0.1250000  -0.5000000   0.0000000), wk =   0.0625000
        k(   11) = (   0.1250000  -0.3750000   0.0000000), wk =   0.0625000
        k(   12) = (   0.1250000  -0.2500000   0.0000000), wk =   0.0625000
        k(   13) = (   0.1250000  -0.1250000   0.0000000), wk =   0.0625000
        k(   14) = (   0.2500000   0.0000000   0.0000000), wk =   0.0625000
        k(   15) = (   0.2500000   0.1250000   0.0000000), wk =   0.0625000
        k(   16) = (   0.2500000   0.2500000   0.0000000), wk =   0.0625000
        k(   17) = (   0.2500000   0.3750000   0.0000000), wk =   0.0625000
        k(   18) = (   0.2500000  -0.5000000   0.0000000), wk =   0.0625000
        k(   19) = (   0.2500000  -0.3750000   0.0000000), wk =   0.0625000
        k(   20) = (   0.2500000  -0.2500000   0.0000000), wk =   0.0625000
        k(   21) = (   0.2500000  -0.1250000   0.0000000), wk =   0.0625000
        k(   22) = (   0.3750000   0.0000000   0.0000000), wk =   0.0625000
        k(   23) = (   0.3750000   0.1250000   0.0000000), wk =   0.0625000
        k(   24) = (   0.3750000   0.2500000   0.0000000), wk =   0.0625000
        k(   25) = (   0.3750000   0.3750000   0.0000000), wk =   0.0625000
        k(   26) = (   0.3750000  -0.5000000   0.0000000), wk =   0.0625000
        k(   27) = (   0.3750000  -0.3750000   0.0000000), wk =   0.0625000
        k(   28) = (   0.3750000  -0.2500000   0.0000000), wk =   0.0625000
        k(   29) = (   0.3750000  -0.1250000   0.0000000), wk =   0.0625000
        k(   30) = (  -0.5000000   0.0000000   0.0000000), wk =   0.0312500
        k(   31) = (  -0.5000000   0.1250000   0.0000000), wk =   0.0625000
        k(   32) = (  -0.5000000   0.2500000   0.0000000), wk =   0.0625000
        k(   33) = (  -0.5000000   0.3750000   0.0000000), wk =   0.0625000
        k(   34) = (  -0.5000000  -0.5000000   0.0000000), wk =   0.0312500

     Dense  grid:  3875677 G-vectors     FFT dimensions: ( 120, 120, 625)

     Smooth grid:   980529 G-vectors     FFT dimensions: (  75,  75, 384)

     Estimated max dynamical RAM per process >     140.99MB

     Estimated total allocated dynamical RAM >   33838.49MB

     Solute:
       # atom     E (kcal/mol)  S (angs)
       1  Cu      1.00000000    3.00000000    given
       2  Cu      1.00000000    3.00000000    given
       3  Cu      1.00000000    3.00000000    given
       4  Cu      1.00000000    3.00000000    given
       5  Cu      1.00000000    3.00000000    given
       6  Cu      1.00000000    3.00000000    given
       7  Cu      1.00000000    3.00000000    given
       8  Cu      1.00000000    3.00000000    given
       9  Cu      1.00000000    3.00000000    given
      10  Cu      1.00000000    3.00000000    given
      11  Cu      1.00000000    3.00000000    given
      12  Cu      1.00000000    3.00000000    given
      13  Cu      1.00000000    3.00000000    given
      14  Cu      1.00000000    3.00000000    given
      15  Cu      1.00000000    3.00000000    given
      16  Cu      1.00000000    3.00000000    given
      17  Cu      1.00000000    3.00000000    given
      18  Cu      1.00000000    3.00000000    given
      19  Cu      1.00000000    3.00000000    given
      20  Cu      1.00000000    3.00000000    given
      21  Cu      1.00000000    3.00000000    given
      22  Cu      1.00000000    3.00000000    given
      23  Cu      1.00000000    3.00000000    given
      24  Cu      1.00000000    3.00000000    given
      25  Cu      1.00000000    3.00000000    given
      26  Cu      1.00000000    3.00000000    given
      27  Cu      1.00000000    3.00000000    given
      28  Cu      1.00000000    3.00000000    given
      29  Cu      1.00000000    3.00000000    given
      30  Cu      1.00000000    3.00000000    given
      31  Cu      1.00000000    3.00000000    given
      32  Cu      1.00000000    3.00000000    given
      33  Cu      1.00000000    3.00000000    given
      34  Cu      1.00000000    3.00000000    given
      35  Cu      1.00000000    3.00000000    given
      36  Cu      1.00000000    3.00000000    given
      37  C       0.07000000    3.55000000    OPLS-AA
      38  O       0.17000000    3.00000000    OPLS-AA

     Wall:
       Density =    0.01000000  bohr^-3
       E       =    0.10000000  kcal/mol
       S       =    4.00000000  angs

     L.J. cutoff radius =       5.0000  S


     Laue-RISM info
     --------------
     closure equation        =           KH
     temperature             =     300.0000  kelvin
     coulomb smearing radius =       2.0000  bohr
     number of solvent sites =            6
     solvent sites           =    O/h2o   H/h2o   L/h2o       K
     solvent sites           =     O/oh    H/oh
     #R-grids in local       =        11250
     #Rz-grids (unit-cell)   =          384
     #Rz-grids (expand-cell) =          720
     #G-grids in local       =         4081
     #Gxy-grids in local     =           17
     #Gxy-shells in local    =           17
     number of iterations    =        10000
     convergence threshold   =      1.0E-06
     convergence level       =       0.8000
     size of MDIIS           =           20
     step of MDIIS           =       0.8000
     solvent cutoff          =     249.8954  Ry
     Custom grid:   980529 G-vectors     FFT dimensions: (  75,  75, 384)

     Boundary Conditions        : Vacuum-Slab-Solvent
     unit-cell (in bohr)        : [ -37.794523  37.794523]
     expand-cell (in bohr)      : [ -37.794523 103.934937]
     solvent of right (in bohr) : [  -8.267552 103.934937]
     buffer  of right (in bohr) : [ -18.109875  -8.267552]
     Gxy = 0 of right (in bohr) : [ -18.109875  82.872365]
     repulsive wall (in bohr)   : [  -Infinity -10.486273]
     reference of potential     : right-hand side
     #grids to fit at edges of unit-cell =    4
     Laue grid:     3865 Gxy-vectors     FFT dimensions: (  75,  75, 720)


     MPI for site:
     number of site groups     =            1
     #procs in a site group    =          240
     this proc in a site group =            0
     the root in a site group  =            0
     this site group           =            0
     inter-site group comm.    =           23
     intra-site group comm.    =            5
     total number of sites     =            6
     starting index of sites   =            1
     ending index of sites     =            6


     MPI for task:
     #procs in a task group    =          240
     this proc in a task group =            0
     the root in a task group  =            0
     task group comm.          =            5


     Initial potential from superposition of free atoms
     Check: negative starting charge=   -0.001648

     starting charge  405.99177, renormalised to  406.00000

     Correlation function is read from file


     negative rho (up, down):  1.648E-03 0.000E+00


     %%%%%%%%%%%%%%%%%%%%%%%%%%%%%%%%%%%%%%%%%%%%%%%%%%%%%%%%%%%%%%%%%%%%%%%%
     %                                                                      %
     % You are using vdW-DF, which was implemented by the Thonhauser group. %
     % Please cite the following two papers that made this development      %
     % possible and the two reviews that describe the various versions:     %
     %                                                                      %
     %   T. Thonhauser et al., PRL 115, 136402 (2015).                      %
     %   T. Thonhauser et al., PRB 76, 125112 (2007).                       %
     %   K. Berland et al., Rep. Prog. Phys. 78, 066501 (2015).             %
     %   D.C. Langreth et al., J. Phys.: Condens. Matter 21, 084203 (2009). %
     %                                                                      %
     %                                                                      %
     % If you are calculating the stress with vdW-DF, please also cite:     %
     %                                                                      %
     %   R. Sabatini et al., J. Phys.: Condens. Matter 24, 424209 (2012).   %
     %                                                                      %
     %%%%%%%%%%%%%%%%%%%%%%%%%%%%%%%%%%%%%%%%%%%%%%%%%%%%%%%%%%%%%%%%%%%%%%%%


     Carrying out vdW-DF run using the following parameters:
     Nqs    =  20  Npoints =  1024  r_max =  100.000
     q_mesh =  0.00001000  0.04494208  0.09755937  0.15916263
               0.23128650  0.31572767  0.41458969  0.53033537
               0.66584808  0.82450364  1.01025438  1.22772762
               1.48234092  1.78043706  2.12944203  2.53805004
               3.01644009  3.57652955  4.23227104  5.00000000


     -----------------------------------------------
     Non-local corr. energy    =      22.28442056 Ry
     -----------------------------------------------


     Laue-RISM Calculation

     convergence threshold    = 6.310E-06
     iter. #     1  RMS(g-h-1)= 7.643E-02  nbox=  0
     iter. #     2  RMS(g-h-1)= 5.874E-02  nbox=  1
     iter. #     3  RMS(g-h-1)= 3.556E-02  nbox=  2
     iter. #     4  RMS(g-h-1)= 1.408E-02  nbox=  3
     iter. #     5  RMS(g-h-1)= 1.187E-02  nbox=  4
     iter. #     6  RMS(g-h-1)= 9.124E-03  nbox=  5
     iter. #     7  RMS(g-h-1)= 7.403E-03  nbox=  6
     iter. #     8  RMS(g-h-1)= 6.839E-03  nbox=  7
     iter. #     9  RMS(g-h-1)= 6.415E-03  nbox=  8
     iter. #    10  RMS(g-h-1)= 5.886E-03  nbox=  9
     iter. #    11  RMS(g-h-1)= 5.505E-03  nbox= 10
     iter. #    12  RMS(g-h-1)= 5.199E-03  nbox= 11
     iter. #    13  RMS(g-h-1)= 4.939E-03  nbox= 12
     iter. #    14  RMS(g-h-1)= 4.569E-03  nbox= 13
     iter. #    15  RMS(g-h-1)= 4.233E-03  nbox= 14
     iter. #    16  RMS(g-h-1)= 4.019E-03  nbox= 15
     iter. #    17  RMS(g-h-1)= 3.718E-03  nbox= 16
     iter. #    18  RMS(g-h-1)= 3.299E-03  nbox= 17
     iter. #    19  RMS(g-h-1)= 2.947E-03  nbox= 18
     iter. #    20  RMS(g-h-1)= 2.727E-03  nbox= 19
     iter. #    21  RMS(g-h-1)= 2.358E-03  nbox= 20
     iter. #    22  RMS(g-h-1)= 2.123E-03  nbox= 20
     iter. #    23  RMS(g-h-1)= 2.010E-03  nbox= 20
     iter. #    24  RMS(g-h-1)= 1.878E-03  nbox= 20
     iter. #    25  RMS(g-h-1)= 1.745E-03  nbox= 20
     iter. #    26  RMS(g-h-1)= 1.665E-03  nbox= 20
     iter. #    27  RMS(g-h-1)= 1.610E-03  nbox= 20
     iter. #    28  RMS(g-h-1)= 1.547E-03  nbox= 20
     iter. #    29  RMS(g-h-1)= 1.505E-03  nbox= 20
     iter. #    30  RMS(g-h-1)= 1.443E-03  nbox= 20
     iter. #    31  RMS(g-h-1)= 1.404E-03  nbox= 20
     iter. #    32  RMS(g-h-1)= 1.362E-03  nbox= 20
     iter. #    33  RMS(g-h-1)= 1.318E-03  nbox= 20
     iter. #    34  RMS(g-h-1)= 1.271E-03  nbox= 20
     iter. #    35  RMS(g-h-1)= 1.247E-03  nbox= 20
     iter. #    36  RMS(g-h-1)= 1.161E-03  nbox= 20
     iter. #    37  RMS(g-h-1)= 1.106E-03  nbox= 20
     iter. #    38  RMS(g-h-1)= 1.069E-03  nbox= 20
     iter. #    39  RMS(g-h-1)= 1.052E-03  nbox= 20
     iter. #    40  RMS(g-h-1)= 1.011E-03  nbox= 20
     iter. #    41  RMS(g-h-1)= 9.767E-04  nbox= 20
     iter. #    42  RMS(g-h-1)= 9.683E-04  nbox= 20
     iter. #    43  RMS(g-h-1)= 9.361E-04  nbox= 20
     iter. #    44  RMS(g-h-1)= 9.131E-04  nbox= 20
     iter. #    45  RMS(g-h-1)= 9.053E-04  nbox= 20
     iter. #    46  RMS(g-h-1)= 8.881E-04  nbox= 20
     iter. #    47  RMS(g-h-1)= 8.821E-04  nbox= 20
     iter. #    48  RMS(g-h-1)= 8.637E-04  nbox= 20
     iter. #    49  RMS(g-h-1)= 8.540E-04  nbox= 20
     iter. #    50  RMS(g-h-1)= 8.494E-04  nbox= 20
     iter. #    51  RMS(g-h-1)= 8.308E-04  nbox= 20
     iter. #    52  RMS(g-h-1)= 8.252E-04  nbox= 20
     iter. #    53  RMS(g-h-1)= 8.209E-04  nbox=  2
     iter. #    54  RMS(g-h-1)= 8.062E-04  nbox=  3
     iter. #    55  RMS(g-h-1)= 7.897E-04  nbox=  4
     iter. #    56  RMS(g-h-1)= 7.759E-04  nbox=  5
     iter. #    57  RMS(g-h-1)= 7.619E-04  nbox=  6
     iter. #    58  RMS(g-h-1)= 7.458E-04  nbox=  7
     iter. #    59  RMS(g-h-1)= 7.394E-04  nbox=  8
     iter. #    60  RMS(g-h-1)= 7.279E-04  nbox=  9
     iter. #    61  RMS(g-h-1)= 7.168E-04  nbox= 10
     iter. #    62  RMS(g-h-1)= 7.078E-04  nbox= 11
     iter. #    63  RMS(g-h-1)= 6.946E-04  nbox= 12
     iter. #    64  RMS(g-h-1)= 7.089E-04  nbox= 13
     iter. #    65  RMS(g-h-1)= 6.779E-04  nbox= 14
     iter. #    66  RMS(g-h-1)= 6.692E-04  nbox= 15
     iter. #    67  RMS(g-h-1)= 6.526E-04  nbox= 16
     iter. #    68  RMS(g-h-1)= 6.347E-04  nbox= 17
     iter. #    69  RMS(g-h-1)= 6.287E-04  nbox=  2
     iter. #    70  RMS(g-h-1)= 6.096E-04  nbox=  3
     iter. #    71  RMS(g-h-1)= 6.003E-04  nbox=  4
     iter. #    72  RMS(g-h-1)= 5.941E-04  nbox=  5
     iter. #    73  RMS(g-h-1)= 5.854E-04  nbox=  6
     iter. #    74  RMS(g-h-1)= 5.741E-04  nbox=  7
     iter. #    75  RMS(g-h-1)= 5.611E-04  nbox=  8
     iter. #    76  RMS(g-h-1)= 5.463E-04  nbox=  9
     iter. #    77  RMS(g-h-1)= 5.492E-04  nbox= 10
     iter. #    78  RMS(g-h-1)= 5.284E-04  nbox= 11
     iter. #    79  RMS(g-h-1)= 5.191E-04  nbox= 12
     iter. #    80  RMS(g-h-1)= 5.050E-04  nbox= 13
     iter. #    81  RMS(g-h-1)= 4.859E-04  nbox= 14
     iter. #    82  RMS(g-h-1)= 4.884E-04  nbox= 15
     iter. #    83  RMS(g-h-1)= 4.681E-04  nbox= 16
     iter. #    84  RMS(g-h-1)= 4.559E-04  nbox= 17
     iter. #    85  RMS(g-h-1)= 4.534E-04  nbox=  2
     iter. #    86  RMS(g-h-1)= 4.437E-04  nbox=  3
     iter. #    87  RMS(g-h-1)= 4.366E-04  nbox=  4
     iter. #    88  RMS(g-h-1)= 4.357E-04  nbox=  5
     iter. #    89  RMS(g-h-1)= 4.274E-04  nbox=  6
     iter. #    90  RMS(g-h-1)= 4.218E-04  nbox=  7
     iter. #    91  RMS(g-h-1)= 4.164E-04  nbox=  8
     iter. #    92  RMS(g-h-1)= 4.077E-04  nbox=  9
     iter. #    93  RMS(g-h-1)= 4.110E-04  nbox= 10
     iter. #    94  RMS(g-h-1)= 3.959E-04  nbox= 11
     iter. #    95  RMS(g-h-1)= 3.893E-04  nbox= 12
     iter. #    96  RMS(g-h-1)= 3.775E-04  nbox= 13
     iter. #    97  RMS(g-h-1)= 3.799E-04  nbox= 14
     iter. #    98  RMS(g-h-1)= 3.646E-04  nbox= 15
     iter. #    99  RMS(g-h-1)= 3.574E-04  nbox= 16
     iter. #   100  RMS(g-h-1)= 3.513E-04  nbox= 17
     iter. #   101  RMS(g-h-1)= 3.501E-04  nbox=  2
     iter. #   102  RMS(g-h-1)= 3.426E-04  nbox=  3
     iter. #   103  RMS(g-h-1)= 3.402E-04  nbox=  4
     iter. #   104  RMS(g-h-1)= 3.313E-04  nbox=  5
     iter. #   105  RMS(g-h-1)= 3.323E-04  nbox=  6
     iter. #   106  RMS(g-h-1)= 3.242E-04  nbox=  7
     iter. #   107  RMS(g-h-1)= 3.191E-04  nbox=  8
     iter. #   108  RMS(g-h-1)= 3.129E-04  nbox=  9
     iter. #   109  RMS(g-h-1)= 3.041E-04  nbox= 10
     iter. #   110  RMS(g-h-1)= 3.034E-04  nbox= 11
     iter. #   111  RMS(g-h-1)= 2.951E-04  nbox= 12
     iter. #   112  RMS(g-h-1)= 2.910E-04  nbox= 13
     iter. #   113  RMS(g-h-1)= 2.867E-04  nbox= 14
     iter. #   114  RMS(g-h-1)= 2.836E-04  nbox= 15
     iter. #   115  RMS(g-h-1)= 2.826E-04  nbox= 16
     iter. #   116  RMS(g-h-1)= 2.797E-04  nbox= 17
     iter. #   117  RMS(g-h-1)= 2.791E-04  nbox=  2
     iter. #   118  RMS(g-h-1)= 2.762E-04  nbox=  3
     iter. #   119  RMS(g-h-1)= 2.738E-04  nbox=  4
     iter. #   120  RMS(g-h-1)= 2.712E-04  nbox=  5
     iter. #   121  RMS(g-h-1)= 2.703E-04  nbox=  6
     iter. #   122  RMS(g-h-1)= 2.677E-04  nbox=  7
     iter. #   123  RMS(g-h-1)= 2.657E-04  nbox=  8
     iter. #   124  RMS(g-h-1)= 2.635E-04  nbox=  9
     iter. #   125  RMS(g-h-1)= 2.619E-04  nbox= 10
     iter. #   126  RMS(g-h-1)= 2.598E-04  nbox= 11
     iter. #   127  RMS(g-h-1)= 2.642E-04  nbox= 12
     iter. #   128  RMS(g-h-1)= 2.564E-04  nbox= 13
     iter. #   129  RMS(g-h-1)= 2.557E-04  nbox= 14
     iter. #   130  RMS(g-h-1)= 2.532E-04  nbox= 15
     iter. #   131  RMS(g-h-1)= 2.505E-04  nbox= 16
     iter. #   132  RMS(g-h-1)= 2.506E-04  nbox= 17
     iter. #   133  RMS(g-h-1)= 2.504E-04  nbox=  2
     iter. #   134  RMS(g-h-1)= 2.474E-04  nbox=  3
     iter. #   135  RMS(g-h-1)= 2.455E-04  nbox=  4
     iter. #   136  RMS(g-h-1)= 2.435E-04  nbox=  5
     iter. #   137  RMS(g-h-1)= 2.418E-04  nbox=  6
     iter. #   138  RMS(g-h-1)= 2.415E-04  nbox=  7
     iter. #   139  RMS(g-h-1)= 2.401E-04  nbox=  8
     iter. #   140  RMS(g-h-1)= 2.384E-04  nbox=  9
     iter. #   141  RMS(g-h-1)= 2.474E-04  nbox= 10
     iter. #   142  RMS(g-h-1)= 2.375E-04  nbox= 11
     iter. #   143  RMS(g-h-1)= 2.372E-04  nbox= 12
     iter. #   144  RMS(g-h-1)= 2.349E-04  nbox= 13
     iter. #   145  RMS(g-h-1)= 2.335E-04  nbox= 14
     iter. #   146  RMS(g-h-1)= 2.324E-04  nbox= 15
     iter. #   147  RMS(g-h-1)= 2.308E-04  nbox= 16
     iter. #   148  RMS(g-h-1)= 2.292E-04  nbox= 17
     iter. #   149  RMS(g-h-1)= 2.281E-04  nbox=  2
     iter. #   150  RMS(g-h-1)= 2.249E-04  nbox=  3
     iter. #   151  RMS(g-h-1)= 2.262E-04  nbox=  4
     iter. #   152  RMS(g-h-1)= 2.214E-04  nbox=  5
     iter. #   153  RMS(g-h-1)= 2.239E-04  nbox=  6
     iter. #   154  RMS(g-h-1)= 2.211E-04  nbox=  7
     iter. #   155  RMS(g-h-1)= 2.197E-04  nbox=  8
     iter. #   156  RMS(g-h-1)= 2.191E-04  nbox=  9
     iter. #   157  RMS(g-h-1)= 2.176E-04  nbox= 10
     iter. #   158  RMS(g-h-1)= 2.166E-04  nbox= 11
     iter. #   159  RMS(g-h-1)= 2.153E-04  nbox= 12
     iter. #   160  RMS(g-h-1)= 2.135E-04  nbox= 13
     iter. #   161  RMS(g-h-1)= 2.129E-04  nbox= 14
     iter. #   162  RMS(g-h-1)= 2.090E-04  nbox= 15
     iter. #   163  RMS(g-h-1)= 2.090E-04  nbox= 16
     iter. #   164  RMS(g-h-1)= 2.072E-04  nbox= 17
     iter. #   165  RMS(g-h-1)= 2.064E-04  nbox=  2
     iter. #   166  RMS(g-h-1)= 2.047E-04  nbox=  3
     iter. #   167  RMS(g-h-1)= 2.032E-04  nbox=  4
     iter. #   168  RMS(g-h-1)= 2.027E-04  nbox=  5
     iter. #   169  RMS(g-h-1)= 2.010E-04  nbox=  6
     iter. #   170  RMS(g-h-1)= 2.000E-04  nbox=  7
     iter. #   171  RMS(g-h-1)= 1.986E-04  nbox=  8
     iter. #   172  RMS(g-h-1)= 1.971E-04  nbox=  9
     iter. #   173  RMS(g-h-1)= 1.963E-04  nbox= 10
     iter. #   174  RMS(g-h-1)= 1.953E-04  nbox= 11
     iter. #   175  RMS(g-h-1)= 1.938E-04  nbox= 12
     iter. #   176  RMS(g-h-1)= 1.921E-04  nbox= 13
     iter. #   177  RMS(g-h-1)= 1.900E-04  nbox= 14
     iter. #   178  RMS(g-h-1)= 1.903E-04  nbox= 15
     iter. #   179  RMS(g-h-1)= 1.879E-04  nbox= 16
     iter. #   180  RMS(g-h-1)= 1.863E-04  nbox= 17
     iter. #   181  RMS(g-h-1)= 1.866E-04  nbox=  2
     iter. #   182  RMS(g-h-1)= 1.846E-04  nbox=  3
     iter. #   183  RMS(g-h-1)= 1.832E-04  nbox=  4
     iter. #   184  RMS(g-h-1)= 1.815E-04  nbox=  5
     iter. #   185  RMS(g-h-1)= 1.821E-04  nbox=  6
     iter. #   186  RMS(g-h-1)= 1.793E-04  nbox=  7
     iter. #   187  RMS(g-h-1)= 1.779E-04  nbox=  8
     iter. #   188  RMS(g-h-1)= 1.761E-04  nbox=  9
     iter. #   189  RMS(g-h-1)= 1.752E-04  nbox= 10
     iter. #   190  RMS(g-h-1)= 1.733E-04  nbox= 11
     iter. #   191  RMS(g-h-1)= 1.740E-04  nbox= 12
     iter. #   192  RMS(g-h-1)= 1.713E-04  nbox= 13
     iter. #   193  RMS(g-h-1)= 1.701E-04  nbox= 14
     iter. #   194  RMS(g-h-1)= 1.692E-04  nbox= 15
     iter. #   195  RMS(g-h-1)= 1.669E-04  nbox= 16
     iter. #   196  RMS(g-h-1)= 1.671E-04  nbox= 17
     iter. #   197  RMS(g-h-1)= 1.670E-04  nbox=  2
     iter. #   198  RMS(g-h-1)= 1.638E-04  nbox=  3
     iter. #   199  RMS(g-h-1)= 1.616E-04  nbox=  4
     iter. #   200  RMS(g-h-1)= 1.598E-04  nbox=  5
     iter. #   201  RMS(g-h-1)= 1.582E-04  nbox=  6
     iter. #   202  RMS(g-h-1)= 1.572E-04  nbox=  7
     iter. #   203  RMS(g-h-1)= 1.566E-04  nbox=  8
     iter. #   204  RMS(g-h-1)= 1.554E-04  nbox=  9
     iter. #   205  RMS(g-h-1)= 1.543E-04  nbox= 10
     iter. #   206  RMS(g-h-1)= 1.528E-04  nbox= 11
     iter. #   207  RMS(g-h-1)= 1.524E-04  nbox= 12
     iter. #   208  RMS(g-h-1)= 1.504E-04  nbox= 13
     iter. #   209  RMS(g-h-1)= 1.497E-04  nbox= 14
     iter. #   210  RMS(g-h-1)= 1.483E-04  nbox= 15
     iter. #   211  RMS(g-h-1)= 1.469E-04  nbox= 16
     iter. #   212  RMS(g-h-1)= 1.468E-04  nbox= 17
     iter. #   213  RMS(g-h-1)= 1.464E-04  nbox=  2
     iter. #   214  RMS(g-h-1)= 1.450E-04  nbox=  3
     iter. #   215  RMS(g-h-1)= 1.435E-04  nbox=  4
     iter. #   216  RMS(g-h-1)= 1.422E-04  nbox=  5
     iter. #   217  RMS(g-h-1)= 1.405E-04  nbox=  6
     iter. #   218  RMS(g-h-1)= 1.433E-04  nbox=  7
     iter. #   219  RMS(g-h-1)= 1.384E-04  nbox=  8
     iter. #   220  RMS(g-h-1)= 1.377E-04  nbox=  9
     iter. #   221  RMS(g-h-1)= 1.368E-04  nbox= 10
     iter. #   222  RMS(g-h-1)= 1.352E-04  nbox= 11
     iter. #   223  RMS(g-h-1)= 1.367E-04  nbox= 12
     iter. #   224  RMS(g-h-1)= 1.338E-04  nbox= 13
     iter. #   225  RMS(g-h-1)= 1.332E-04  nbox= 14
     iter. #   226  RMS(g-h-1)= 1.321E-04  nbox= 15
     iter. #   227  RMS(g-h-1)= 1.310E-04  nbox= 16
     iter. #   228  RMS(g-h-1)= 1.304E-04  nbox= 17
     iter. #   229  RMS(g-h-1)= 1.300E-04  nbox=  2
     iter. #   230  RMS(g-h-1)= 1.289E-04  nbox=  3
     iter. #   231  RMS(g-h-1)= 1.275E-04  nbox=  4
     iter. #   232  RMS(g-h-1)= 1.261E-04  nbox=  5
     iter. #   233  RMS(g-h-1)= 1.245E-04  nbox=  6
     iter. #   234  RMS(g-h-1)= 1.253E-04  nbox=  7
     iter. #   235  RMS(g-h-1)= 1.225E-04  nbox=  8
     iter. #   236  RMS(g-h-1)= 1.219E-04  nbox=  9
     iter. #   237  RMS(g-h-1)= 1.208E-04  nbox= 10
     iter. #   238  RMS(g-h-1)= 1.196E-04  nbox= 11
     iter. #   239  RMS(g-h-1)= 1.190E-04  nbox= 12
     iter. #   240  RMS(g-h-1)= 1.178E-04  nbox= 13
     iter. #   241  RMS(g-h-1)= 1.165E-04  nbox= 14
     iter. #   242  RMS(g-h-1)= 1.151E-04  nbox= 15
     iter. #   243  RMS(g-h-1)= 1.141E-04  nbox= 16
     iter. #   244  RMS(g-h-1)= 1.120E-04  nbox= 17
     iter. #   245  RMS(g-h-1)= 1.146E-04  nbox=  2
     iter. #   246  RMS(g-h-1)= 1.105E-04  nbox=  3
     iter. #   247  RMS(g-h-1)= 1.093E-04  nbox=  4
     iter. #   248  RMS(g-h-1)= 1.079E-04  nbox=  5
     iter. #   249  RMS(g-h-1)= 1.078E-04  nbox=  6
     iter. #   250  RMS(g-h-1)= 1.066E-04  nbox=  7
     iter. #   251  RMS(g-h-1)= 1.059E-04  nbox=  8
     iter. #   252  RMS(g-h-1)= 1.052E-04  nbox=  9
     iter. #   253  RMS(g-h-1)= 1.046E-04  nbox= 10
     iter. #   254  RMS(g-h-1)= 1.039E-04  nbox= 11
     iter. #   255  RMS(g-h-1)= 1.042E-04  nbox= 12
     iter. #   256  RMS(g-h-1)= 1.027E-04  nbox= 13
     iter. #   257  RMS(g-h-1)= 1.019E-04  nbox= 14
     iter. #   258  RMS(g-h-1)= 1.005E-04  nbox= 15
     iter. #   259  RMS(g-h-1)= 9.928E-05  nbox= 16
     iter. #   260  RMS(g-h-1)= 9.803E-05  nbox= 17
     iter. #   261  RMS(g-h-1)= 9.768E-05  nbox=  2
     iter. #   262  RMS(g-h-1)= 9.673E-05  nbox=  3
     iter. #   263  RMS(g-h-1)= 9.587E-05  nbox=  4
     iter. #   264  RMS(g-h-1)= 9.517E-05  nbox=  5
     iter. #   265  RMS(g-h-1)= 9.475E-05  nbox=  6
     iter. #   266  RMS(g-h-1)= 9.399E-05  nbox=  7
     iter. #   267  RMS(g-h-1)= 9.305E-05  nbox=  8
     iter. #   268  RMS(g-h-1)= 9.200E-05  nbox=  9
     iter. #   269  RMS(g-h-1)= 9.300E-05  nbox= 10
     iter. #   270  RMS(g-h-1)= 9.054E-05  nbox= 11
     iter. #   271  RMS(g-h-1)= 9.007E-05  nbox= 12
     iter. #   272  RMS(g-h-1)= 8.909E-05  nbox= 13
     iter. #   273  RMS(g-h-1)= 8.793E-05  nbox= 14
     iter. #   274  RMS(g-h-1)= 8.727E-05  nbox= 15
     iter. #   275  RMS(g-h-1)= 8.674E-05  nbox= 16
     iter. #   276  RMS(g-h-1)= 8.567E-05  nbox= 17
     iter. #   277  RMS(g-h-1)= 8.538E-05  nbox=  2
     iter. #   278  RMS(g-h-1)= 8.418E-05  nbox=  3
     iter. #   279  RMS(g-h-1)= 8.277E-05  nbox=  4
     iter. #   280  RMS(g-h-1)= 8.267E-05  nbox=  5
     iter. #   281  RMS(g-h-1)= 8.095E-05  nbox=  6
     iter. #   282  RMS(g-h-1)= 8.008E-05  nbox=  7
     iter. #   283  RMS(g-h-1)= 7.996E-05  nbox=  8
     iter. #   284  RMS(g-h-1)= 7.838E-05  nbox=  9
     iter. #   285  RMS(g-h-1)= 7.820E-05  nbox= 10
     iter. #   286  RMS(g-h-1)= 7.748E-05  nbox= 11
     iter. #   287  RMS(g-h-1)= 7.675E-05  nbox= 12
     iter. #   288  RMS(g-h-1)= 7.644E-05  nbox= 13
     iter. #   289  RMS(g-h-1)= 7.587E-05  nbox= 14
     iter. #   290  RMS(g-h-1)= 7.508E-05  nbox= 15
     iter. #   291  RMS(g-h-1)= 7.428E-05  nbox= 16
     iter. #   292  RMS(g-h-1)= 7.354E-05  nbox= 17
     iter. #   293  RMS(g-h-1)= 7.343E-05  nbox=  2
     iter. #   294  RMS(g-h-1)= 7.262E-05  nbox=  3
     iter. #   295  RMS(g-h-1)= 7.198E-05  nbox=  4
     iter. #   296  RMS(g-h-1)= 7.124E-05  nbox=  5
     iter. #   297  RMS(g-h-1)= 7.140E-05  nbox=  6
     iter. #   298  RMS(g-h-1)= 7.044E-05  nbox=  7
     iter. #   299  RMS(g-h-1)= 7.002E-05  nbox=  8
     iter. #   300  RMS(g-h-1)= 6.950E-05  nbox=  9
     iter. #   301  RMS(g-h-1)= 6.923E-05  nbox= 10
     iter. #   302  RMS(g-h-1)= 6.864E-05  nbox= 11
     iter. #   303  RMS(g-h-1)= 6.876E-05  nbox= 12
     iter. #   304  RMS(g-h-1)= 6.782E-05  nbox= 13
     iter. #   305  RMS(g-h-1)= 6.738E-05  nbox= 14
     iter. #   306  RMS(g-h-1)= 6.690E-05  nbox= 15
     iter. #   307  RMS(g-h-1)= 6.634E-05  nbox= 16
     iter. #   308  RMS(g-h-1)= 6.597E-05  nbox= 17
     iter. #   309  RMS(g-h-1)= 6.580E-05  nbox=  2
     iter. #   310  RMS(g-h-1)= 6.540E-05  nbox=  3
     iter. #   311  RMS(g-h-1)= 6.504E-05  nbox=  4
     iter. #   312  RMS(g-h-1)= 6.477E-05  nbox=  5
     iter. #   313  RMS(g-h-1)= 6.456E-05  nbox=  6
     iter. #   314  RMS(g-h-1)= 6.437E-05  nbox=  7
     iter. #   315  RMS(g-h-1)= 6.401E-05  nbox=  8
     iter. #   316  RMS(g-h-1)= 6.389E-05  nbox=  9
     iter. #   317  RMS(g-h-1)= 6.458E-05  nbox= 10
     iter. #   318  RMS(g-h-1)= 6.302E-05  nbox= 11
     iter. #   319  RMS(g-h-1)= 6.281E-05  nbox= 12
     iter. #   320  RMS(g-h-1)= 6.232E-05  nbox= 13
     iter. #   321  RMS(g-h-1)= 6.189E-05  nbox= 14
     iter. #   322  RMS(g-h-1)= 6.159E-05  nbox= 15
     iter. #   323  RMS(g-h-1)= 6.123E-05  nbox= 16
     iter. #   324  RMS(g-h-1)= 6.104E-05  nbox= 17
     iter. #   325  RMS(g-h-1)= 6.094E-05  nbox=  2
     iter. #   326  RMS(g-h-1)= 6.076E-05  nbox=  3
     iter. #   327  RMS(g-h-1)= 6.050E-05  nbox=  4
     iter. #   328  RMS(g-h-1)= 6.023E-05  nbox=  5
     iter. #   329  RMS(g-h-1)= 5.986E-05  nbox=  6
     iter. #   330  RMS(g-h-1)= 5.963E-05  nbox=  7
     iter. #   331  RMS(g-h-1)= 5.932E-05  nbox=  8
     iter. #   332  RMS(g-h-1)= 5.896E-05  nbox=  9
     iter. #   333  RMS(g-h-1)= 5.860E-05  nbox= 10
     iter. #   334  RMS(g-h-1)= 5.829E-05  nbox= 11
     iter. #   335  RMS(g-h-1)= 5.803E-05  nbox= 12
     iter. #   336  RMS(g-h-1)= 5.770E-05  nbox= 13
     iter. #   337  RMS(g-h-1)= 5.767E-05  nbox= 14
     iter. #   338  RMS(g-h-1)= 5.733E-05  nbox= 15
     iter. #   339  RMS(g-h-1)= 5.708E-05  nbox= 16
     iter. #   340  RMS(g-h-1)= 5.684E-05  nbox= 17
     iter. #   341  RMS(g-h-1)= 5.694E-05  nbox=  2
     iter. #   342  RMS(g-h-1)= 5.650E-05  nbox=  3
     iter. #   343  RMS(g-h-1)= 5.758E-05  nbox=  4
     iter. #   344  RMS(g-h-1)= 5.598E-05  nbox=  5
     iter. #   345  RMS(g-h-1)= 5.600E-05  nbox=  6
     iter. #   346  RMS(g-h-1)= 5.558E-05  nbox=  7
     iter. #   347  RMS(g-h-1)= 5.525E-05  nbox=  8
     iter. #   348  RMS(g-h-1)= 5.501E-05  nbox=  9
     iter. #   349  RMS(g-h-1)= 5.471E-05  nbox= 10
     iter. #   350  RMS(g-h-1)= 5.465E-05  nbox= 11
     iter. #   351  RMS(g-h-1)= 5.438E-05  nbox= 12
     iter. #   352  RMS(g-h-1)= 5.420E-05  nbox= 13
     iter. #   353  RMS(g-h-1)= 5.404E-05  nbox= 14
     iter. #   354  RMS(g-h-1)= 5.387E-05  nbox= 15
     iter. #   355  RMS(g-h-1)= 5.383E-05  nbox= 16
     iter. #   356  RMS(g-h-1)= 5.368E-05  nbox= 17
     iter. #   357  RMS(g-h-1)= 5.362E-05  nbox=  2
     iter. #   358  RMS(g-h-1)= 5.348E-05  nbox=  3
     iter. #   359  RMS(g-h-1)= 5.331E-05  nbox=  4
     iter. #   360  RMS(g-h-1)= 5.316E-05  nbox=  5
     iter. #   361  RMS(g-h-1)= 5.311E-05  nbox=  6
     iter. #   362  RMS(g-h-1)= 5.286E-05  nbox=  7
     iter. #   363  RMS(g-h-1)= 5.284E-05  nbox=  8
     iter. #   364  RMS(g-h-1)= 5.262E-05  nbox=  9
     iter. #   365  RMS(g-h-1)= 5.237E-05  nbox= 10
     iter. #   366  RMS(g-h-1)= 5.236E-05  nbox= 11
     iter. #   367  RMS(g-h-1)= 5.299E-05  nbox= 12
     iter. #   368  RMS(g-h-1)= 5.198E-05  nbox= 13
     iter. #   369  RMS(g-h-1)= 5.191E-05  nbox= 14
     iter. #   370  RMS(g-h-1)= 5.168E-05  nbox= 15
     iter. #   371  RMS(g-h-1)= 5.149E-05  nbox= 16
     iter. #   372  RMS(g-h-1)= 5.133E-05  nbox= 17
     iter. #   373  RMS(g-h-1)= 5.124E-05  nbox=  2
     iter. #   374  RMS(g-h-1)= 5.103E-05  nbox=  3
     iter. #   375  RMS(g-h-1)= 5.081E-05  nbox=  4
     iter. #   376  RMS(g-h-1)= 5.061E-05  nbox=  5
     iter. #   377  RMS(g-h-1)= 5.042E-05  nbox=  6
     iter. #   378  RMS(g-h-1)= 5.031E-05  nbox=  7
     iter. #   379  RMS(g-h-1)= 5.009E-05  nbox=  8
     iter. #   380  RMS(g-h-1)= 4.985E-05  nbox=  9
     iter. #   381  RMS(g-h-1)= 4.962E-05  nbox= 10
     iter. #   382  RMS(g-h-1)= 4.952E-05  nbox= 11
     iter. #   383  RMS(g-h-1)= 4.942E-05  nbox= 12
     iter. #   384  RMS(g-h-1)= 4.971E-05  nbox= 13
     iter. #   385  RMS(g-h-1)= 4.920E-05  nbox= 14
     iter. #   386  RMS(g-h-1)= 4.909E-05  nbox= 15
     iter. #   387  RMS(g-h-1)= 4.889E-05  nbox= 16
     iter. #   388  RMS(g-h-1)= 4.863E-05  nbox= 17
     iter. #   389  RMS(g-h-1)= 4.855E-05  nbox=  2
     iter. #   390  RMS(g-h-1)= 4.833E-05  nbox=  3
     iter. #   391  RMS(g-h-1)= 4.816E-05  nbox=  4
     iter. #   392  RMS(g-h-1)= 4.797E-05  nbox=  5
     iter. #   393  RMS(g-h-1)= 4.789E-05  nbox=  6
     iter. #   394  RMS(g-h-1)= 4.782E-05  nbox=  7
     iter. #   395  RMS(g-h-1)= 4.763E-05  nbox=  8
     iter. #   396  RMS(g-h-1)= 4.805E-05  nbox=  9
     iter. #   397  RMS(g-h-1)= 4.754E-05  nbox= 10
     iter. #   398  RMS(g-h-1)= 4.745E-05  nbox= 11
     iter. #   399  RMS(g-h-1)= 4.725E-05  nbox= 12
     iter. #   400  RMS(g-h-1)= 4.709E-05  nbox= 13
     iter. #   401  RMS(g-h-1)= 4.697E-05  nbox= 14
     iter. #   402  RMS(g-h-1)= 4.681E-05  nbox= 15
     iter. #   403  RMS(g-h-1)= 4.664E-05  nbox= 16
     iter. #   404  RMS(g-h-1)= 4.647E-05  nbox= 17
     iter. #   405  RMS(g-h-1)= 4.635E-05  nbox=  2
     iter. #   406  RMS(g-h-1)= 4.604E-05  nbox=  3
     iter. #   407  RMS(g-h-1)= 4.588E-05  nbox=  4
     iter. #   408  RMS(g-h-1)= 4.555E-05  nbox=  5
     iter. #   409  RMS(g-h-1)= 4.606E-05  nbox=  6
     iter. #   410  RMS(g-h-1)= 4.557E-05  nbox=  7
     iter. #   411  RMS(g-h-1)= 4.540E-05  nbox=  8
     iter. #   412  RMS(g-h-1)= 4.528E-05  nbox=  9
     iter. #   413  RMS(g-h-1)= 4.506E-05  nbox= 10
     iter. #   414  RMS(g-h-1)= 4.495E-05  nbox= 11
     iter. #   415  RMS(g-h-1)= 4.475E-05  nbox= 12
     iter. #   416  RMS(g-h-1)= 4.459E-05  nbox= 13
     iter. #   417  RMS(g-h-1)= 4.439E-05  nbox= 14
     iter. #   418  RMS(g-h-1)= 4.424E-05  nbox= 15
     iter. #   419  RMS(g-h-1)= 4.413E-05  nbox= 16
     iter. #   420  RMS(g-h-1)= 4.397E-05  nbox= 17
     iter. #   421  RMS(g-h-1)= 4.389E-05  nbox=  2
     iter. #   422  RMS(g-h-1)= 4.374E-05  nbox=  3
     iter. #   423  RMS(g-h-1)= 4.360E-05  nbox=  4
     iter. #   424  RMS(g-h-1)= 4.348E-05  nbox=  5
     iter. #   425  RMS(g-h-1)= 4.331E-05  nbox=  6
     iter. #   426  RMS(g-h-1)= 4.330E-05  nbox=  7
     iter. #   427  RMS(g-h-1)= 4.314E-05  nbox=  8
     iter. #   428  RMS(g-h-1)= 4.300E-05  nbox=  9
     iter. #   429  RMS(g-h-1)= 4.286E-05  nbox= 10
     iter. #   430  RMS(g-h-1)= 4.298E-05  nbox= 11
     iter. #   431  RMS(g-h-1)= 4.279E-05  nbox= 12
     iter. #   432  RMS(g-h-1)= 4.268E-05  nbox= 13
     iter. #   433  RMS(g-h-1)= 4.257E-05  nbox= 14
     iter. #   434  RMS(g-h-1)= 4.246E-05  nbox= 15
     iter. #   435  RMS(g-h-1)= 4.241E-05  nbox= 16
     iter. #   436  RMS(g-h-1)= 4.235E-05  nbox= 17
     iter. #   437  RMS(g-h-1)= 4.231E-05  nbox=  2
     iter. #   438  RMS(g-h-1)= 4.226E-05  nbox=  3
     iter. #   439  RMS(g-h-1)= 4.219E-05  nbox=  4
     iter. #   440  RMS(g-h-1)= 4.216E-05  nbox=  5
     iter. #   441  RMS(g-h-1)= 4.211E-05  nbox=  6
     iter. #   442  RMS(g-h-1)= 4.207E-05  nbox=  7
     iter. #   443  RMS(g-h-1)= 4.200E-05  nbox=  8
     iter. #   444  RMS(g-h-1)= 4.194E-05  nbox=  9
     iter. #   445  RMS(g-h-1)= 4.189E-05  nbox= 10
     iter. #   446  RMS(g-h-1)= 4.183E-05  nbox= 11
     iter. #   447  RMS(g-h-1)= 4.175E-05  nbox= 12
     iter. #   448  RMS(g-h-1)= 4.171E-05  nbox= 13
     iter. #   449  RMS(g-h-1)= 4.160E-05  nbox= 14
     iter. #   450  RMS(g-h-1)= 4.167E-05  nbox= 15
     iter. #   451  RMS(g-h-1)= 4.149E-05  nbox= 16
     iter. #   452  RMS(g-h-1)= 4.141E-05  nbox= 17
     iter. #   453  RMS(g-h-1)= 4.137E-05  nbox=  2
     iter. #   454  RMS(g-h-1)= 4.128E-05  nbox=  3
     iter. #   455  RMS(g-h-1)= 4.120E-05  nbox=  4
     iter. #   456  RMS(g-h-1)= 4.112E-05  nbox=  5
     iter. #   457  RMS(g-h-1)= 4.103E-05  nbox=  6
     iter. #   458  RMS(g-h-1)= 4.094E-05  nbox=  7
     iter. #   459  RMS(g-h-1)= 4.079E-05  nbox=  8
     iter. #   460  RMS(g-h-1)= 4.063E-05  nbox=  9
     iter. #   461  RMS(g-h-1)= 4.050E-05  nbox= 10
     iter. #   462  RMS(g-h-1)= 4.037E-05  nbox= 11
     iter. #   463  RMS(g-h-1)= 4.029E-05  nbox= 12
     iter. #   464  RMS(g-h-1)= 4.019E-05  nbox= 13
     iter. #   465  RMS(g-h-1)= 4.007E-05  nbox= 14
     iter. #   466  RMS(g-h-1)= 3.995E-05  nbox= 15
     iter. #   467  RMS(g-h-1)= 3.981E-05  nbox= 16
     iter. #   468  RMS(g-h-1)= 3.973E-05  nbox= 17
     iter. #   469  RMS(g-h-1)= 3.967E-05  nbox=  2
     iter. #   470  RMS(g-h-1)= 3.956E-05  nbox=  3
     iter. #   471  RMS(g-h-1)= 3.943E-05  nbox=  4
     iter. #   472  RMS(g-h-1)= 3.929E-05  nbox=  5
     iter. #   473  RMS(g-h-1)= 3.914E-05  nbox=  6
     iter. #   474  RMS(g-h-1)= 3.905E-05  nbox=  7
     iter. #   475  RMS(g-h-1)= 3.899E-05  nbox=  8
     iter. #   476  RMS(g-h-1)= 3.892E-05  nbox=  9
     iter. #   477  RMS(g-h-1)= 3.883E-05  nbox= 10
     iter. #   478  RMS(g-h-1)= 3.873E-05  nbox= 11
     iter. #   479  RMS(g-h-1)= 3.863E-05  nbox= 12
     iter. #   480  RMS(g-h-1)= 3.850E-05  nbox= 13
     iter. #   481  RMS(g-h-1)= 3.840E-05  nbox= 14
     iter. #   482  RMS(g-h-1)= 3.827E-05  nbox= 15
     iter. #   483  RMS(g-h-1)= 3.811E-05  nbox= 16
     iter. #   484  RMS(g-h-1)= 3.795E-05  nbox= 17
     iter. #   485  RMS(g-h-1)= 3.792E-05  nbox=  2
     iter. #   486  RMS(g-h-1)= 3.778E-05  nbox=  3
     iter. #   487  RMS(g-h-1)= 3.766E-05  nbox=  4
     iter. #   488  RMS(g-h-1)= 3.756E-05  nbox=  5
     iter. #   489  RMS(g-h-1)= 3.751E-05  nbox=  6
     iter. #   490  RMS(g-h-1)= 3.737E-05  nbox=  7
     iter. #   491  RMS(g-h-1)= 3.726E-05  nbox=  8
     iter. #   492  RMS(g-h-1)= 3.714E-05  nbox=  9
     iter. #   493  RMS(g-h-1)= 3.704E-05  nbox= 10
     iter. #   494  RMS(g-h-1)= 3.698E-05  nbox= 11
     iter. #   495  RMS(g-h-1)= 3.690E-05  nbox= 12
     iter. #   496  RMS(g-h-1)= 3.678E-05  nbox= 13
     iter. #   497  RMS(g-h-1)= 3.668E-05  nbox= 14
     iter. #   498  RMS(g-h-1)= 3.655E-05  nbox= 15
     iter. #   499  RMS(g-h-1)= 3.641E-05  nbox= 16
     iter. #   500  RMS(g-h-1)= 3.632E-05  nbox= 17
     iter. #   501  RMS(g-h-1)= 3.625E-05  nbox=  2
     iter. #   502  RMS(g-h-1)= 3.611E-05  nbox=  3
     iter. #   503  RMS(g-h-1)= 3.596E-05  nbox=  4
     iter. #   504  RMS(g-h-1)= 3.590E-05  nbox=  5
     iter. #   505  RMS(g-h-1)= 3.577E-05  nbox=  6
     iter. #   506  RMS(g-h-1)= 3.565E-05  nbox=  7
     iter. #   507  RMS(g-h-1)= 3.554E-05  nbox=  8
     iter. #   508  RMS(g-h-1)= 3.546E-05  nbox=  9
     iter. #   509  RMS(g-h-1)= 3.538E-05  nbox= 10
     iter. #   510  RMS(g-h-1)= 3.531E-05  nbox= 11
     iter. #   511  RMS(g-h-1)= 3.525E-05  nbox= 12
     iter. #   512  RMS(g-h-1)= 3.521E-05  nbox= 13
     iter. #   513  RMS(g-h-1)= 3.514E-05  nbox= 14
     iter. #   514  RMS(g-h-1)= 3.507E-05  nbox= 15
     iter. #   515  RMS(g-h-1)= 3.499E-05  nbox= 16
     iter. #   516  RMS(g-h-1)= 3.490E-05  nbox= 17
     iter. #   517  RMS(g-h-1)= 3.490E-05  nbox=  2
     iter. #   518  RMS(g-h-1)= 3.484E-05  nbox=  3
     iter. #   519  RMS(g-h-1)= 3.478E-05  nbox=  4
     iter. #   520  RMS(g-h-1)= 3.471E-05  nbox=  5
     iter. #   521  RMS(g-h-1)= 3.466E-05  nbox=  6
     iter. #   522  RMS(g-h-1)= 3.463E-05  nbox=  7
     iter. #   523  RMS(g-h-1)= 3.457E-05  nbox=  8
     iter. #   524  RMS(g-h-1)= 3.451E-05  nbox=  9
     iter. #   525  RMS(g-h-1)= 3.445E-05  nbox= 10
     iter. #   526  RMS(g-h-1)= 3.440E-05  nbox= 11
     iter. #   527  RMS(g-h-1)= 3.434E-05  nbox= 12
     iter. #   528  RMS(g-h-1)= 3.430E-05  nbox= 13
     iter. #   529  RMS(g-h-1)= 3.425E-05  nbox= 14
     iter. #   530  RMS(g-h-1)= 3.423E-05  nbox= 15
     iter. #   531  RMS(g-h-1)= 3.419E-05  nbox= 16
     iter. #   532  RMS(g-h-1)= 3.415E-05  nbox= 17
     iter. #   533  RMS(g-h-1)= 3.415E-05  nbox=  2
     iter. #   534  RMS(g-h-1)= 3.411E-05  nbox=  3
     iter. #   535  RMS(g-h-1)= 3.408E-05  nbox=  4
     iter. #   536  RMS(g-h-1)= 3.404E-05  nbox=  5
     iter. #   537  RMS(g-h-1)= 3.401E-05  nbox=  6
     iter. #   538  RMS(g-h-1)= 3.397E-05  nbox=  7
     iter. #   539  RMS(g-h-1)= 3.396E-05  nbox=  8
     iter. #   540  RMS(g-h-1)= 3.392E-05  nbox=  9
     iter. #   541  RMS(g-h-1)= 3.387E-05  nbox= 10
     iter. #   542  RMS(g-h-1)= 3.383E-05  nbox= 11
     iter. #   543  RMS(g-h-1)= 3.379E-05  nbox= 12
     iter. #   544  RMS(g-h-1)= 3.374E-05  nbox= 13
     iter. #   545  RMS(g-h-1)= 3.371E-05  nbox= 14
     iter. #   546  RMS(g-h-1)= 3.367E-05  nbox= 15
     iter. #   547  RMS(g-h-1)= 3.362E-05  nbox= 16
     iter. #   548  RMS(g-h-1)= 3.357E-05  nbox= 17
     iter. #   549  RMS(g-h-1)= 3.355E-05  nbox=  2
     iter. #   550  RMS(g-h-1)= 3.347E-05  nbox=  3
     iter. #   551  RMS(g-h-1)= 3.341E-05  nbox=  4
     iter. #   552  RMS(g-h-1)= 3.334E-05  nbox=  5
     iter. #   553  RMS(g-h-1)= 3.328E-05  nbox=  6
     iter. #   554  RMS(g-h-1)= 3.323E-05  nbox=  7
     iter. #   555  RMS(g-h-1)= 3.318E-05  nbox=  8
     iter. #   556  RMS(g-h-1)= 3.310E-05  nbox=  9
     iter. #   557  RMS(g-h-1)= 3.300E-05  nbox= 10
     iter. #   558  RMS(g-h-1)= 3.289E-05  nbox= 11
     iter. #   559  RMS(g-h-1)= 3.279E-05  nbox= 12
     iter. #   560  RMS(g-h-1)= 3.265E-05  nbox= 13
     iter. #   561  RMS(g-h-1)= 3.253E-05  nbox= 14
     iter. #   562  RMS(g-h-1)= 3.242E-05  nbox= 15
     iter. #   563  RMS(g-h-1)= 3.230E-05  nbox= 16
     iter. #   564  RMS(g-h-1)= 3.215E-05  nbox= 17
     iter. #   565  RMS(g-h-1)= 3.212E-05  nbox=  2
     iter. #   566  RMS(g-h-1)= 3.194E-05  nbox=  3
     iter. #   567  RMS(g-h-1)= 3.178E-05  nbox=  4
     iter. #   568  RMS(g-h-1)= 3.161E-05  nbox=  5
     iter. #   569  RMS(g-h-1)= 3.143E-05  nbox=  6
     iter. #   570  RMS(g-h-1)= 3.134E-05  nbox=  7
     iter. #   571  RMS(g-h-1)= 3.114E-05  nbox=  8
     iter. #   572  RMS(g-h-1)= 3.090E-05  nbox=  9
     iter. #   573  RMS(g-h-1)= 3.064E-05  nbox= 10
     iter. #   574  RMS(g-h-1)= 3.032E-05  nbox= 11
     iter. #   575  RMS(g-h-1)= 3.011E-05  nbox= 12
     iter. #   576  RMS(g-h-1)= 2.985E-05  nbox= 13
     iter. #   577  RMS(g-h-1)= 2.977E-05  nbox= 14
     iter. #   578  RMS(g-h-1)= 2.954E-05  nbox= 15
     iter. #   579  RMS(g-h-1)= 2.928E-05  nbox= 16
     iter. #   580  RMS(g-h-1)= 2.914E-05  nbox= 17
     iter. #   581  RMS(g-h-1)= 2.905E-05  nbox=  2
     iter. #   582  RMS(g-h-1)= 2.889E-05  nbox=  3
     iter. #   583  RMS(g-h-1)= 2.866E-05  nbox=  4
     iter. #   584  RMS(g-h-1)= 2.848E-05  nbox=  5
     iter. #   585  RMS(g-h-1)= 2.823E-05  nbox=  6
     iter. #   586  RMS(g-h-1)= 2.819E-05  nbox=  7
     iter. #   587  RMS(g-h-1)= 2.791E-05  nbox=  8
     iter. #   588  RMS(g-h-1)= 2.764E-05  nbox=  9
     iter. #   589  RMS(g-h-1)= 2.738E-05  nbox= 10
     iter. #   590  RMS(g-h-1)= 2.714E-05  nbox= 11
     iter. #   591  RMS(g-h-1)= 2.687E-05  nbox= 12
     iter. #   592  RMS(g-h-1)= 2.671E-05  nbox= 13
     iter. #   593  RMS(g-h-1)= 2.659E-05  nbox= 14
     iter. #   594  RMS(g-h-1)= 2.639E-05  nbox= 15
     iter. #   595  RMS(g-h-1)= 2.622E-05  nbox= 16
     iter. #   596  RMS(g-h-1)= 2.605E-05  nbox= 17
     iter. #   597  RMS(g-h-1)= 2.601E-05  nbox=  2
     iter. #   598  RMS(g-h-1)= 2.582E-05  nbox=  3
     iter. #   599  RMS(g-h-1)= 2.580E-05  nbox=  4
     iter. #   600  RMS(g-h-1)= 2.562E-05  nbox=  5
     iter. #   601  RMS(g-h-1)= 2.552E-05  nbox=  6
     iter. #   602  RMS(g-h-1)= 2.540E-05  nbox=  7
     iter. #   603  RMS(g-h-1)= 2.529E-05  nbox=  8
     iter. #   604  RMS(g-h-1)= 2.522E-05  nbox=  9
     iter. #   605  RMS(g-h-1)= 2.513E-05  nbox= 10
     iter. #   606  RMS(g-h-1)= 2.505E-05  nbox= 11
     iter. #   607  RMS(g-h-1)= 2.500E-05  nbox= 12
     iter. #   608  RMS(g-h-1)= 2.493E-05  nbox= 13
     iter. #   609  RMS(g-h-1)= 2.483E-05  nbox= 14
     iter. #   610  RMS(g-h-1)= 2.474E-05  nbox= 15
     iter. #   611  RMS(g-h-1)= 2.462E-05  nbox= 16
     iter. #   612  RMS(g-h-1)= 2.449E-05  nbox= 17
     iter. #   613  RMS(g-h-1)= 2.447E-05  nbox=  2
     iter. #   614  RMS(g-h-1)= 2.434E-05  nbox=  3
     iter. #   615  RMS(g-h-1)= 2.424E-05  nbox=  4
     iter. #   616  RMS(g-h-1)= 2.421E-05  nbox=  5
     iter. #   617  RMS(g-h-1)= 2.410E-05  nbox=  6
     iter. #   618  RMS(g-h-1)= 2.402E-05  nbox=  7
     iter. #   619  RMS(g-h-1)= 2.395E-05  nbox=  8
     iter. #   620  RMS(g-h-1)= 2.388E-05  nbox=  9
     iter. #   621  RMS(g-h-1)= 2.380E-05  nbox= 10
     iter. #   622  RMS(g-h-1)= 2.373E-05  nbox= 11
     iter. #   623  RMS(g-h-1)= 2.368E-05  nbox= 12
     iter. #   624  RMS(g-h-1)= 2.365E-05  nbox= 13
     iter. #   625  RMS(g-h-1)= 2.359E-05  nbox= 14
     iter. #   626  RMS(g-h-1)= 2.353E-05  nbox= 15
     iter. #   627  RMS(g-h-1)= 2.347E-05  nbox= 16
     iter. #   628  RMS(g-h-1)= 2.341E-05  nbox= 17
     iter. #   629  RMS(g-h-1)= 2.339E-05  nbox=  2
     iter. #   630  RMS(g-h-1)= 2.334E-05  nbox=  3
     iter. #   631  RMS(g-h-1)= 2.328E-05  nbox=  4
     iter. #   632  RMS(g-h-1)= 2.323E-05  nbox=  5
     iter. #   633  RMS(g-h-1)= 2.318E-05  nbox=  6
     iter. #   634  RMS(g-h-1)= 2.313E-05  nbox=  7
     iter. #   635  RMS(g-h-1)= 2.309E-05  nbox=  8
     iter. #   636  RMS(g-h-1)= 2.307E-05  nbox=  9
     iter. #   637  RMS(g-h-1)= 2.302E-05  nbox= 10
     iter. #   638  RMS(g-h-1)= 2.299E-05  nbox= 11
     iter. #   639  RMS(g-h-1)= 2.295E-05  nbox= 12
     iter. #   640  RMS(g-h-1)= 2.291E-05  nbox= 13
     iter. #   641  RMS(g-h-1)= 2.291E-05  nbox= 14
     iter. #   642  RMS(g-h-1)= 2.287E-05  nbox= 15
     iter. #   643  RMS(g-h-1)= 2.283E-05  nbox= 16
     iter. #   644  RMS(g-h-1)= 2.280E-05  nbox= 17
     iter. #   645  RMS(g-h-1)= 2.279E-05  nbox=  2
     iter. #   646  RMS(g-h-1)= 2.274E-05  nbox=  3
     iter. #   647  RMS(g-h-1)= 2.271E-05  nbox=  4
     iter. #   648  RMS(g-h-1)= 2.267E-05  nbox=  5
     iter. #   649  RMS(g-h-1)= 2.264E-05  nbox=  6
     iter. #   650  RMS(g-h-1)= 2.260E-05  nbox=  7
     iter. #   651  RMS(g-h-1)= 2.257E-05  nbox=  8
     iter. #   652  RMS(g-h-1)= 2.255E-05  nbox=  9
     iter. #   653  RMS(g-h-1)= 2.252E-05  nbox= 10
     iter. #   654  RMS(g-h-1)= 2.248E-05  nbox= 11
     iter. #   655  RMS(g-h-1)= 2.245E-05  nbox= 12
     iter. #   656  RMS(g-h-1)= 2.241E-05  nbox= 13
     iter. #   657  RMS(g-h-1)= 2.239E-05  nbox= 14
     iter. #   658  RMS(g-h-1)= 2.237E-05  nbox= 15
     iter. #   659  RMS(g-h-1)= 2.232E-05  nbox= 16
     iter. #   660  RMS(g-h-1)= 2.228E-05  nbox= 17
     iter. #   661  RMS(g-h-1)= 2.228E-05  nbox=  2
     iter. #   662  RMS(g-h-1)= 2.223E-05  nbox=  3
     iter. #   663  RMS(g-h-1)= 2.219E-05  nbox=  4
     iter. #   664  RMS(g-h-1)= 2.216E-05  nbox=  5
     iter. #   665  RMS(g-h-1)= 2.212E-05  nbox=  6
     iter. #   666  RMS(g-h-1)= 2.210E-05  nbox=  7
     iter. #   667  RMS(g-h-1)= 2.207E-05  nbox=  8
     iter. #   668  RMS(g-h-1)= 2.203E-05  nbox=  9
     iter. #   669  RMS(g-h-1)= 2.197E-05  nbox= 10
     iter. #   670  RMS(g-h-1)= 2.191E-05  nbox= 11
     iter. #   671  RMS(g-h-1)= 2.185E-05  nbox= 12
     iter. #   672  RMS(g-h-1)= 2.178E-05  nbox= 13
     iter. #   673  RMS(g-h-1)= 2.172E-05  nbox= 14
     iter. #   674  RMS(g-h-1)= 2.168E-05  nbox= 15
     iter. #   675  RMS(g-h-1)= 2.163E-05  nbox= 16
     iter. #   676  RMS(g-h-1)= 2.157E-05  nbox= 17
     iter. #   677  RMS(g-h-1)= 2.156E-05  nbox=  2
     iter. #   678  RMS(g-h-1)= 2.149E-05  nbox=  3
     iter. #   679  RMS(g-h-1)= 2.143E-05  nbox=  4
     iter. #   680  RMS(g-h-1)= 2.136E-05  nbox=  5
     iter. #   681  RMS(g-h-1)= 2.129E-05  nbox=  6
     iter. #   682  RMS(g-h-1)= 2.124E-05  nbox=  7
     iter. #   683  RMS(g-h-1)= 2.117E-05  nbox=  8
     iter. #   684  RMS(g-h-1)= 2.109E-05  nbox=  9
     iter. #   685  RMS(g-h-1)= 2.100E-05  nbox= 10
     iter. #   686  RMS(g-h-1)= 2.089E-05  nbox= 11
     iter. #   687  RMS(g-h-1)= 2.080E-05  nbox= 12
     iter. #   688  RMS(g-h-1)= 2.069E-05  nbox= 13
     iter. #   689  RMS(g-h-1)= 2.066E-05  nbox= 14
     iter. #   690  RMS(g-h-1)= 2.057E-05  nbox= 15
     iter. #   691  RMS(g-h-1)= 2.048E-05  nbox= 16
     iter. #   692  RMS(g-h-1)= 2.041E-05  nbox= 17
     iter. #   693  RMS(g-h-1)= 2.039E-05  nbox=  2
     iter. #   694  RMS(g-h-1)= 2.030E-05  nbox=  3
     iter. #   695  RMS(g-h-1)= 2.020E-05  nbox=  4
     iter. #   696  RMS(g-h-1)= 2.010E-05  nbox=  5
     iter. #   697  RMS(g-h-1)= 1.998E-05  nbox=  6
     iter. #   698  RMS(g-h-1)= 1.995E-05  nbox=  7
     iter. #   699  RMS(g-h-1)= 1.979E-05  nbox=  8
     iter. #   700  RMS(g-h-1)= 1.964E-05  nbox=  9
     iter. #   701  RMS(g-h-1)= 1.947E-05  nbox= 10
     iter. #   702  RMS(g-h-1)= 1.930E-05  nbox= 11
     iter. #   703  RMS(g-h-1)= 1.920E-05  nbox= 12
     iter. #   704  RMS(g-h-1)= 1.907E-05  nbox= 13
     iter. #   705  RMS(g-h-1)= 1.889E-05  nbox= 14
     iter. #   706  RMS(g-h-1)= 1.875E-05  nbox= 15
     iter. #   707  RMS(g-h-1)= 1.859E-05  nbox= 16
     iter. #   708  RMS(g-h-1)= 1.847E-05  nbox= 17
     iter. #   709  RMS(g-h-1)= 1.846E-05  nbox=  2
     iter. #   710  RMS(g-h-1)= 1.830E-05  nbox=  3
     iter. #   711  RMS(g-h-1)= 1.818E-05  nbox=  4
     iter. #   712  RMS(g-h-1)= 1.812E-05  nbox=  5
     iter. #   713  RMS(g-h-1)= 1.792E-05  nbox=  6
     iter. #   714  RMS(g-h-1)= 1.787E-05  nbox=  7
     iter. #   715  RMS(g-h-1)= 1.770E-05  nbox=  8
     iter. #   716  RMS(g-h-1)= 1.756E-05  nbox=  9
     iter. #   717  RMS(g-h-1)= 1.740E-05  nbox= 10
     iter. #   718  RMS(g-h-1)= 1.723E-05  nbox= 11
     iter. #   719  RMS(g-h-1)= 1.706E-05  nbox= 12
     iter. #   720  RMS(g-h-1)= 1.691E-05  nbox= 13
     iter. #   721  RMS(g-h-1)= 1.681E-05  nbox= 14
     iter. #   722  RMS(g-h-1)= 1.663E-05  nbox= 15
     iter. #   723  RMS(g-h-1)= 1.644E-05  nbox= 16
     iter. #   724  RMS(g-h-1)= 1.620E-05  nbox= 17
     iter. #   725  RMS(g-h-1)= 1.615E-05  nbox=  2
     iter. #   726  RMS(g-h-1)= 1.591E-05  nbox=  3
     iter. #   727  RMS(g-h-1)= 1.569E-05  nbox=  4
     iter. #   728  RMS(g-h-1)= 1.560E-05  nbox=  5
     iter. #   729  RMS(g-h-1)= 1.540E-05  nbox=  6
     iter. #   730  RMS(g-h-1)= 1.519E-05  nbox=  7
     iter. #   731  RMS(g-h-1)= 1.498E-05  nbox=  8
     iter. #   732  RMS(g-h-1)= 1.477E-05  nbox=  9
     iter. #   733  RMS(g-h-1)= 1.464E-05  nbox= 10
     iter. #   734  RMS(g-h-1)= 1.451E-05  nbox= 11
     iter. #   735  RMS(g-h-1)= 1.432E-05  nbox= 12
     iter. #   736  RMS(g-h-1)= 1.413E-05  nbox= 13
     iter. #   737  RMS(g-h-1)= 1.394E-05  nbox= 14
     iter. #   738  RMS(g-h-1)= 1.373E-05  nbox= 15
     iter. #   739  RMS(g-h-1)= 1.354E-05  nbox= 16
     iter. #   740  RMS(g-h-1)= 1.337E-05  nbox= 17
     iter. #   741  RMS(g-h-1)= 1.334E-05  nbox=  2
     iter. #   742  RMS(g-h-1)= 1.315E-05  nbox=  3
     iter. #   743  RMS(g-h-1)= 1.297E-05  nbox=  4
     iter. #   744  RMS(g-h-1)= 1.291E-05  nbox=  5
     iter. #   745  RMS(g-h-1)= 1.275E-05  nbox=  6
     iter. #   746  RMS(g-h-1)= 1.260E-05  nbox=  7
     iter. #   747  RMS(g-h-1)= 1.245E-05  nbox=  8
     iter. #   748  RMS(g-h-1)= 1.230E-05  nbox=  9
     iter. #   749  RMS(g-h-1)= 1.221E-05  nbox= 10
     iter. #   750  RMS(g-h-1)= 1.207E-05  nbox= 11
     iter. #   751  RMS(g-h-1)= 1.203E-05  nbox= 12
     iter. #   752  RMS(g-h-1)= 1.192E-05  nbox= 13
     iter. #   753  RMS(g-h-1)= 1.181E-05  nbox= 14
     iter. #   754  RMS(g-h-1)= 1.171E-05  nbox= 15
     iter. #   755  RMS(g-h-1)= 1.159E-05  nbox= 16
     iter. #   756  RMS(g-h-1)= 1.151E-05  nbox= 17
     iter. #   757  RMS(g-h-1)= 1.147E-05  nbox=  2
     iter. #   758  RMS(g-h-1)= 1.138E-05  nbox=  3
     iter. #   759  RMS(g-h-1)= 1.128E-05  nbox=  4
     iter. #   760  RMS(g-h-1)= 1.117E-05  nbox=  5
     iter. #   761  RMS(g-h-1)= 1.106E-05  nbox=  6
     iter. #   762  RMS(g-h-1)= 1.104E-05  nbox=  7
     iter. #   763  RMS(g-h-1)= 1.090E-05  nbox=  8
     iter. #   764  RMS(g-h-1)= 1.080E-05  nbox=  9
     iter. #   765  RMS(g-h-1)= 1.069E-05  nbox= 10
     iter. #   766  RMS(g-h-1)= 1.060E-05  nbox= 11
     iter. #   767  RMS(g-h-1)= 1.052E-05  nbox= 12
     iter. #   768  RMS(g-h-1)= 1.044E-05  nbox= 13
     iter. #   769  RMS(g-h-1)= 1.036E-05  nbox= 14
     iter. #   770  RMS(g-h-1)= 1.032E-05  nbox= 15
     iter. #   771  RMS(g-h-1)= 1.026E-05  nbox= 16
     iter. #   772  RMS(g-h-1)= 1.019E-05  nbox= 17
     iter. #   773  RMS(g-h-1)= 1.018E-05  nbox=  2
     iter. #   774  RMS(g-h-1)= 1.010E-05  nbox=  3
     iter. #   775  RMS(g-h-1)= 1.004E-05  nbox=  4
     iter. #   776  RMS(g-h-1)= 9.981E-06  nbox=  5
     iter. #   777  RMS(g-h-1)= 9.909E-06  nbox=  6
     iter. #   778  RMS(g-h-1)= 9.892E-06  nbox=  7
     iter. #   779  RMS(g-h-1)= 9.824E-06  nbox=  8
     iter. #   780  RMS(g-h-1)= 9.770E-06  nbox=  9
     iter. #   781  RMS(g-h-1)= 9.724E-06  nbox= 10
     iter. #   782  RMS(g-h-1)= 9.656E-06  nbox= 11
     iter. #   783  RMS(g-h-1)= 9.694E-06  nbox= 12
     iter. #   784  RMS(g-h-1)= 9.575E-06  nbox= 13
     iter. #   785  RMS(g-h-1)= 9.533E-06  nbox= 14
     iter. #   786  RMS(g-h-1)= 9.472E-06  nbox= 15
     iter. #   787  RMS(g-h-1)= 9.416E-06  nbox= 16
     iter. #   788  RMS(g-h-1)= 9.345E-06  nbox= 17
     iter. #   789  RMS(g-h-1)= 9.326E-06  nbox=  2
     iter. #   790  RMS(g-h-1)= 9.268E-06  nbox=  3
     iter. #   791  RMS(g-h-1)= 9.204E-06  nbox=  4
     iter. #   792  RMS(g-h-1)= 9.152E-06  nbox=  5
     iter. #   793  RMS(g-h-1)= 9.110E-06  nbox=  6
     iter. #   794  RMS(g-h-1)= 9.076E-06  nbox=  7
     iter. #   795  RMS(g-h-1)= 9.021E-06  nbox=  8
     iter. #   796  RMS(g-h-1)= 8.975E-06  nbox=  9
     iter. #   797  RMS(g-h-1)= 8.916E-06  nbox= 10
     iter. #   798  RMS(g-h-1)= 8.868E-06  nbox= 11
     iter. #   799  RMS(g-h-1)= 8.803E-06  nbox= 12
     iter. #   800  RMS(g-h-1)= 8.754E-06  nbox= 13
     iter. #   801  RMS(g-h-1)= 8.705E-06  nbox= 14
     iter. #   802  RMS(g-h-1)= 8.637E-06  nbox= 15
     iter. #   803  RMS(g-h-1)= 8.574E-06  nbox= 16
     iter. #   804  RMS(g-h-1)= 8.514E-06  nbox= 17
     iter. #   805  RMS(g-h-1)= 8.503E-06  nbox=  2
     iter. #   806  RMS(g-h-1)= 8.440E-06  nbox=  3
     iter. #   807  RMS(g-h-1)= 8.391E-06  nbox=  4
     iter. #   808  RMS(g-h-1)= 8.333E-06  nbox=  5
     iter. #   809  RMS(g-h-1)= 8.308E-06  nbox=  6
     iter. #   810  RMS(g-h-1)= 8.243E-06  nbox=  7
     iter. #   811  RMS(g-h-1)= 8.184E-06  nbox=  8
     iter. #   812  RMS(g-h-1)= 8.115E-06  nbox=  9
     iter. #   813  RMS(g-h-1)= 8.045E-06  nbox= 10
     iter. #   814  RMS(g-h-1)= 8.002E-06  nbox= 11
     iter. #   815  RMS(g-h-1)= 7.931E-06  nbox= 12
     iter. #   816  RMS(g-h-1)= 7.958E-06  nbox= 13
     iter. #   817  RMS(g-h-1)= 7.842E-06  nbox= 14
     iter. #   818  RMS(g-h-1)= 7.791E-06  nbox= 15
     iter. #   819  RMS(g-h-1)= 7.730E-06  nbox= 16
     iter. #   820  RMS(g-h-1)= 7.668E-06  nbox= 17
     iter. #   821  RMS(g-h-1)= 7.655E-06  nbox=  2
     iter. #   822  RMS(g-h-1)= 7.597E-06  nbox=  3
     iter. #   823  RMS(g-h-1)= 7.539E-06  nbox=  4
     iter. #   824  RMS(g-h-1)= 7.489E-06  nbox=  5
     iter. #   825  RMS(g-h-1)= 7.453E-06  nbox=  6
     iter. #   826  RMS(g-h-1)= 7.423E-06  nbox=  7
     iter. #   827  RMS(g-h-1)= 7.369E-06  nbox=  8
     iter. #   828  RMS(g-h-1)= 7.327E-06  nbox=  9
     iter. #   829  RMS(g-h-1)= 7.282E-06  nbox= 10
     iter. #   830  RMS(g-h-1)= 7.245E-06  nbox= 11
     iter. #   831  RMS(g-h-1)= 7.210E-06  nbox= 12
     iter. #   832  RMS(g-h-1)= 7.173E-06  nbox= 13
     iter. #   833  RMS(g-h-1)= 7.163E-06  nbox= 14
     iter. #   834  RMS(g-h-1)= 7.122E-06  nbox= 15
     iter. #   835  RMS(g-h-1)= 7.086E-06  nbox= 16
     iter. #   836  RMS(g-h-1)= 7.047E-06  nbox= 17
     iter. #   837  RMS(g-h-1)= 7.039E-06  nbox=  2
     iter. #   838  RMS(g-h-1)= 7.000E-06  nbox=  3
     iter. #   839  RMS(g-h-1)= 6.970E-06  nbox=  4
     iter. #   840  RMS(g-h-1)= 6.936E-06  nbox=  5
     iter. #   841  RMS(g-h-1)= 6.909E-06  nbox=  6
     iter. #   842  RMS(g-h-1)= 6.882E-06  nbox=  7
     iter. #   843  RMS(g-h-1)= 6.862E-06  nbox=  8
     iter. #   844  RMS(g-h-1)= 6.831E-06  nbox=  9
     iter. #   845  RMS(g-h-1)= 6.799E-06  nbox= 10
     iter. #   846  RMS(g-h-1)= 6.767E-06  nbox= 11
     iter. #   847  RMS(g-h-1)= 6.738E-06  nbox= 12
     iter. #   848  RMS(g-h-1)= 6.709E-06  nbox= 13
     iter. #   849  RMS(g-h-1)= 6.686E-06  nbox= 14
     iter. #   850  RMS(g-h-1)= 6.671E-06  nbox= 15
     iter. #   851  RMS(g-h-1)= 6.644E-06  nbox= 16
     iter. #   852  RMS(g-h-1)= 6.618E-06  nbox= 17
     iter. #   853  RMS(g-h-1)= 6.612E-06  nbox=  2
     iter. #   854  RMS(g-h-1)= 6.577E-06  nbox=  3
     iter. #   855  RMS(g-h-1)= 6.552E-06  nbox=  4
     iter. #   856  RMS(g-h-1)= 6.520E-06  nbox=  5
     iter. #   857  RMS(g-h-1)= 6.497E-06  nbox=  6
     iter. #   858  RMS(g-h-1)= 6.473E-06  nbox=  7
     iter. #   859  RMS(g-h-1)= 6.465E-06  nbox=  8
     iter. #   860  RMS(g-h-1)= 6.441E-06  nbox=  9
     iter. #   861  RMS(g-h-1)= 6.418E-06  nbox= 10
     iter. #   862  RMS(g-h-1)= 6.394E-06  nbox= 11
     iter. #   863  RMS(g-h-1)= 6.367E-06  nbox= 12
     iter. #   864  RMS(g-h-1)= 6.341E-06  nbox= 13
     iter. #   865  RMS(g-h-1)= 6.308E-06  nbox= 14

     End of Laue-RISM calculation


     convergence has been achieved in   865 iterations


     solvent charge    0.00345, renormalised to    0.00000

     Total number of solvent (in expand-cell)
     H2O           97.474177
     K+             1.612963
     OH-            1.610690

     Total charge of solvent (in expand-cell)
     H2O            0.000286 e
     K+             1.612963 e
     OH-           -1.609798 e
     Total          0.003450 e

     Chemical potential of solvation (in expand-cell)
     H2O        GaussFluct   0.159180E+01 kcal/mol
     K+         GaussFluct   0.186543E+01 kcal/mol
     OH-        GaussFluct  -0.125081E+01 kcal/mol
     Total      GaussFluct   0.220643E+01 kcal/mol

     Starting wfc are  332 randomized atomic wfcs
     Checking if some PAW data can be deallocated... 
       node    0, deallocated PAW data for type:  2
       node    0, deallocated PAW data for type:  3
       node    1, deallocated PAW data for type:  2
       node    1, deallocated PAW data for type:  3
       node    2, deallocated PAW data for type:  2
       node    2, deallocated PAW data for type:  3
       node    3, deallocated PAW data for type:  2
       node    3, deallocated PAW data for type:  3
       node    4, deallocated PAW data for type:  2
       node    4, deallocated PAW data for type:  3
       node    5, deallocated PAW data for type:  2
       node    5, deallocated PAW data for type:  3
       node    6, deallocated PAW data for type:  2
       node    6, deallocated PAW data for type:  3
       node    7, deallocated PAW data for type:  2
       node    7, deallocated PAW data for type:  3
       node    8, deallocated PAW data for type:  2
       node    8, deallocated PAW data for type:  3
       node    9, deallocated PAW data for type:  2
       node    9, deallocated PAW data for type:  3
       node   10, deallocated PAW data for type:  2
       node   10, deallocated PAW data for type:  3
       node   11, deallocated PAW data for type:  2
       node   11, deallocated PAW data for type:  3
       node   12, deallocated PAW data for type:  2
       node   12, deallocated PAW data for type:  3
       node   13, deallocated PAW data for type:  2
       node   13, deallocated PAW data for type:  3
       node   14, deallocated PAW data for type:  2
[...]
     atom   19 type  1   force =     0.00078924   -0.04942462   61.63595973
     atom   20 type  1   force =    -0.21086486   -0.12133579   65.56489928
     atom   21 type  1   force =     0.20999441   -0.12172112   65.56302350
     atom   22 type  1   force =     0.01586700   -0.00923330   62.69878664
     atom   23 type  1   force =    -0.00076532    0.24300043   65.56395524
     atom   24 type  1   force =    -0.01514822   -0.00864368   62.69753599
     atom   25 type  1   force =     0.04284469    0.02429945   61.63577804
     atom   26 type  1   force =    -0.04270120    0.02512497   61.63609737
     atom   27 type  1   force =    -0.00014863    0.01792623   62.69815990
     atom   28 type  1   force =     0.00224475   -0.00002362  203.68840977
     atom   29 type  1   force =    -0.59727043   -0.75067460  202.93493842
     atom   30 type  1   force =     0.59523451   -0.75644073  202.92950720
     atom   31 type  1   force =    -0.94673279   -0.13962098  202.93757517
     atom   32 type  1   force =    -0.01020310   -0.00000378  203.56260199
     atom   33 type  1   force =     0.95469050   -0.13961917  202.92680001
     atom   34 type  1   force =    -0.35546518    0.89029256  202.93489515
     atom   35 type  1   force =     0.35343256    0.89606077  202.92953684
     atom   36 type  1   force =     0.00228521    0.00003780  204.43256294
     atom   37 type  2   force =    -0.08685433    0.00001454   93.27944468
     atom   38 type  3   force =     0.08877071   -0.00002437  164.32227103
     The local contribution  to forces
     atom    1 type  1   force =     0.00000608   -0.00003423  217.60713370
     atom    2 type  1   force =     0.02316251   -0.02520045  217.76106468
     atom    3 type  1   force =    -0.02317115   -0.02511050  217.76108153
     atom    4 type  1   force =    -0.01022611    0.03260553  217.76105003
     atom    5 type  1   force =     0.00010533    0.00000181  217.72428814
     atom    6 type  1   force =     0.01012070    0.03264629  217.76113871
     atom    7 type  1   force =    -0.03331118   -0.00744372  217.76104992
     atom    8 type  1   force =     0.03336743   -0.00750297  217.76112351
     atom    9 type  1   force =    -0.00005277    0.00002847  217.84869481
     atom   10 type  1   force =     0.02244763    0.01296635   77.50404815
     atom   11 type  1   force =     0.00010974   -0.16357678   77.20037302
     atom   12 type  1   force =    -0.02255651    0.01307268   77.50414270
     atom   13 type  1   force =    -0.14161902    0.08183420   77.20024937
     atom   14 type  1   force =     0.14175328    0.08178700   77.20050718
     atom   15 type  1   force =    -0.00012223    0.09684297   77.81440654
     atom   16 type  1   force =     0.00003940   -0.02601763   77.50405764
     atom   17 type  1   force =     0.08384417   -0.04851466   77.81436274
     atom   18 type  1   force =    -0.08388209   -0.04839336   77.81433996
     atom   19 type  1   force =    -0.00082586    0.04466182  -61.66057987
     atom   20 type  1   force =     0.22424665    0.12909078  -65.56773838
     atom   21 type  1   force =    -0.22338732    0.12942414  -65.56601249
     atom   22 type  1   force =    -0.02374892    0.01377621  -62.72734830
     atom   23 type  1   force =     0.00071470   -0.25845889  -65.56686949
     atom   24 type  1   force =     0.02309973    0.01324285  -62.72607391
     atom   25 type  1   force =    -0.03871656   -0.02189482  -61.66038139
     atom   26 type  1   force =     0.03858070   -0.02276700  -61.66073314
     atom   27 type  1   force =     0.00013468   -0.02706788  -62.72670985
     atom   28 type  1   force =    -0.00220610    0.00002372 -203.71949522
     atom   29 type  1   force =     0.57856882    0.71977911 -203.01584852
     atom   30 type  1   force =    -0.57663410    0.72591606 -203.01017188
     atom   31 type  1   force =     0.91043914    0.13882893 -203.01860994
     atom   32 type  1   force =     0.01093051    0.00000384 -203.59062538
     atom   33 type  1   force =    -0.91914082    0.13881700 -203.00734123
     atom   34 type  1   force =     0.33813962   -0.85860248 -203.01580655
     atom   35 type  1   force =    -0.33621721   -0.86473692 -203.01020014
     atom   36 type  1   force =    -0.00225615   -0.00003759 -204.46464633
     atom   37 type  2   force =     0.07958181   -0.00001251  -94.15980365
     atom   38 type  3   force =    -0.06420338    0.00001814 -161.56920198
     The core correction contribution to forces
     atom    1 type  1   force =    -0.00000118   -0.00000011    0.01936614
     atom    2 type  1   force =    -0.00022353    0.00004004    0.01940560
     atom    3 type  1   force =     0.00022542    0.00004462    0.01940568
     atom    4 type  1   force =    -0.00007749   -0.00021633    0.01940526
     atom    5 type  1   force =     0.00000429    0.00000005    0.01895044
     atom    6 type  1   force =     0.00007367   -0.00021507    0.01940646
     atom    7 type  1   force =     0.00015111    0.00017494    0.01940509
     atom    8 type  1   force =    -0.00014704    0.00017161    0.01940610
     atom    9 type  1   force =    -0.00000371    0.00000008    0.01978429
     atom   10 type  1   force =     0.00024445    0.00014121    0.00009830
     atom   11 type  1   force =     0.00000362   -0.00063791   -0.00036611
     atom   12 type  1   force =    -0.00024711    0.00014267    0.00010442
     atom   13 type  1   force =    -0.00055266    0.00032131   -0.00036467
     atom   14 type  1   force =     0.00055238    0.00031689   -0.00036745
     atom   15 type  1   force =     0.00000086    0.00028214    0.00066538
     atom   16 type  1   force =     0.00000004   -0.00028384    0.00010143
     atom   17 type  1   force =     0.00024462   -0.00014077    0.00066470
     atom   18 type  1   force =    -0.00024418   -0.00014143    0.00066629
     atom   19 type  1   force =     0.00000449   -0.00034866   -0.00017904
     atom   20 type  1   force =     0.00157117    0.00090886    0.00095870
     atom   21 type  1   force =    -0.00158051    0.00091088    0.00097922
     atom   22 type  1   force =     0.00008684   -0.00005190    0.00048207
     atom   23 type  1   force =    -0.00000299   -0.00181949    0.00096896
     atom   24 type  1   force =    -0.00008317   -0.00004626    0.00047709
     atom   25 type  1   force =     0.00030391    0.00017281   -0.00017888
     atom   26 type  1   force =    -0.00030028    0.00017592   -0.00017907
     atom   27 type  1   force =    -0.00000303    0.00009815    0.00047949
     atom   28 type  1   force =     0.00000113   -0.00000008   -0.01963597
     atom   29 type  1   force =    -0.00088019   -0.00170252   -0.02008040
     atom   30 type  1   force =     0.00087920   -0.00168821   -0.02007965
     atom   31 type  1   force =    -0.00191848    0.00008658   -0.02008360
     atom   32 type  1   force =    -0.00005079   -0.00000010    0.02504429
     atom   33 type  1   force =     0.00189745    0.00008505   -0.02007648
     atom   34 type  1   force =    -0.00102817    0.00161442   -0.02008311
     atom   35 type  1   force =     0.00102822    0.00160484   -0.02007696
     atom   36 type  1   force =     0.00000285    0.00000006   -0.02027511
     atom   37 type  2   force =    -0.00016683    0.00000020   -0.01714630
     atom   38 type  3   force =     0.00020455   -0.00000010    0.02244671
     The Hubbard contrib.    to forces
     atom    1 type  1   force =     0.00000000    0.00000000    0.00000000
     atom    2 type  1   force =     0.00000000    0.00000000    0.00000000
     atom    3 type  1   force =     0.00000000    0.00000000    0.00000000
     atom    4 type  1   force =     0.00000000    0.00000000    0.00000000
     atom    5 type  1   force =     0.00000000    0.00000000    0.00000000
     atom    6 type  1   force =     0.00000000    0.00000000    0.00000000
     atom    7 type  1   force =     0.00000000    0.00000000    0.00000000
     atom    8 type  1   force =     0.00000000    0.00000000    0.00000000
     atom    9 type  1   force =     0.00000000    0.00000000    0.00000000
     atom   10 type  1   force =     0.00000000    0.00000000    0.00000000
     atom   11 type  1   force =     0.00000000    0.00000000    0.00000000
     atom   12 type  1   force =     0.00000000    0.00000000    0.00000000
     atom   13 type  1   force =     0.00000000    0.00000000    0.00000000
     atom   14 type  1   force =     0.00000000    0.00000000    0.00000000
     atom   15 type  1   force =     0.00000000    0.00000000    0.00000000
     atom   16 type  1   force =     0.00000000    0.00000000    0.00000000
     atom   17 type  1   force =     0.00000000    0.00000000    0.00000000
     atom   18 type  1   force =     0.00000000    0.00000000    0.00000000
     atom   19 type  1   force =     0.00000000    0.00000000    0.00000000
     atom   20 type  1   force =     0.00000000    0.00000000    0.00000000
     atom   21 type  1   force =     0.00000000    0.00000000    0.00000000
     atom   22 type  1   force =     0.00000000    0.00000000    0.00000000
     atom   23 type  1   force =     0.00000000    0.00000000    0.00000000
     atom   24 type  1   force =     0.00000000    0.00000000    0.00000000
     atom   25 type  1   force =     0.00000000    0.00000000    0.00000000
     atom   26 type  1   force =     0.00000000    0.00000000    0.00000000
     atom   27 type  1   force =     0.00000000    0.00000000    0.00000000
     atom   28 type  1   force =     0.00000000    0.00000000    0.00000000
     atom   29 type  1   force =     0.00000000    0.00000000    0.00000000
     atom   30 type  1   force =     0.00000000    0.00000000    0.00000000
     atom   31 type  1   force =     0.00000000    0.00000000    0.00000000
     atom   32 type  1   force =     0.00000000    0.00000000    0.00000000
     atom   33 type  1   force =     0.00000000    0.00000000    0.00000000
     atom   34 type  1   force =     0.00000000    0.00000000    0.00000000
     atom   35 type  1   force =     0.00000000    0.00000000    0.00000000
     atom   36 type  1   force =     0.00000000    0.00000000    0.00000000
     atom   37 type  2   force =     0.00000000    0.00000000    0.00000000
     atom   38 type  3   force =     0.00000000    0.00000000    0.00000000
     The SCF correction term to forces
     atom    1 type  1   force =     0.00000000    0.00000000    0.00000000
     atom    2 type  1   force =     0.00000000    0.00000000    0.00000000
     atom    3 type  1   force =     0.00000000    0.00000000    0.00000000
     atom    4 type  1   force =     0.00000000    0.00000000    0.00000000
     atom    5 type  1   force =     0.00000000    0.00000000    0.00000000
     atom    6 type  1   force =     0.00000000    0.00000000    0.00000000
     atom    7 type  1   force =     0.00000000    0.00000000    0.00000000
     atom    8 type  1   force =     0.00000000    0.00000000    0.00000000
     atom    9 type  1   force =     0.00000000    0.00000000    0.00000000
     atom   10 type  1   force =    -0.00000011   -0.00000003   -0.00000272
     atom   11 type  1   force =     0.00000003    0.00000005   -0.00000280
     atom   12 type  1   force =     0.00000009   -0.00000007   -0.00000271
     atom   13 type  1   force =     0.00000004    0.00000004   -0.00000279
     atom   14 type  1   force =    -0.00000005    0.00000000   -0.00000279
     atom   15 type  1   force =     0.00000002   -0.00000007   -0.00000276
     atom   16 type  1   force =    -0.00000004    0.00000008   -0.00000270
     atom   17 type  1   force =    -0.00000008    0.00000001   -0.00000275
     atom   18 type  1   force =     0.00000011    0.00000003   -0.00000274
     atom   19 type  1   force =    -0.00000002   -0.00000013   -0.00000381
     atom   20 type  1   force =    -0.00000006    0.00000001   -0.00000368
     atom   21 type  1   force =     0.00000009   -0.00000004   -0.00000367
     atom   22 type  1   force =     0.00000001    0.00000005   -0.00000370
     atom   23 type  1   force =    -0.00000003    0.00000011   -0.00000367
     atom   24 type  1   force =     0.00000003   -0.00000001   -0.00000372
     atom   25 type  1   force =     0.00000010    0.00000002   -0.00000380
     atom   26 type  1   force =    -0.00000018    0.00000004   -0.00000382
     atom   27 type  1   force =     0.00000007   -0.00000006   -0.00000372
     atom   28 type  1   force =    -0.00000004   -0.00000003   -0.00000221
     atom   29 type  1   force =    -0.00000002   -0.00000010   -0.00000225
     atom   30 type  1   force =     0.00000006   -0.00000012   -0.00000229
     atom   31 type  1   force =    -0.00000009    0.00000008   -0.00000226
     atom   32 type  1   force =     0.00000002    0.00000006   -0.00000252
     atom   33 type  1   force =     0.00000009    0.00000003   -0.00000225
     atom   34 type  1   force =    -0.00000007    0.00000006   -0.00000230
     atom   35 type  1   force =     0.00000003    0.00000004   -0.00000224
     atom   36 type  1   force =     0.00000004   -0.00000002   -0.00000188
     atom   37 type  2   force =     0.00000000    0.00000001   -0.00000083
     atom   38 type  3   force =     0.00000000    0.00000001   -0.00000162

     3D-RISM Solvation contribution to forces:
     atom    1 type  1   force =     0.00000013    0.00000000    0.00000698
     atom    2 type  1   force =     0.00001181    0.00002363    0.00003133
     atom    3 type  1   force =    -0.00001192    0.00002346    0.00003108
     atom    4 type  1   force =     0.00002643   -0.00000150    0.00003143
     atom    5 type  1   force =    -0.00000019    0.00000002    0.00008318
     atom    6 type  1   force =    -0.00002621   -0.00000146    0.00003106
     atom    7 type  1   force =     0.00001442   -0.00002215    0.00003130
     atom    8 type  1   force =    -0.00001449   -0.00002196    0.00003119
     atom    9 type  1   force =     0.00000007   -0.00000002    0.00000188
     atom   10 type  1   force =     0.00014167    0.00008191    0.00004109
     atom   11 type  1   force =    -0.00000130    0.00019948    0.00030744
     atom   12 type  1   force =    -0.00014030    0.00008099    0.00003859
     atom   13 type  1   force =     0.00017205   -0.00010006    0.00030897
     atom   14 type  1   force =    -0.00017338   -0.00009933    0.00030592
     atom   15 type  1   force =     0.00000137   -0.00005361   -0.00004898
     atom   16 type  1   force =    -0.00000012   -0.00016282    0.00003985
     atom   17 type  1   force =    -0.00004637    0.00002753   -0.00004912
     atom   18 type  1   force =     0.00004650    0.00002602   -0.00004885
     atom   19 type  1   force =     0.00000964    0.00027175   -0.00044946
     atom   20 type  1   force =     0.00101664    0.00059248    0.00204432
     atom   21 type  1   force =    -0.00102727    0.00058765    0.00201814
     atom   22 type  1   force =     0.00117596   -0.00068072   -0.00006127
     atom   23 type  1   force =    -0.00000950   -0.00117999    0.00203134
     atom   24 type  1   force =    -0.00116677   -0.00067182   -0.00007462
     atom   25 type  1   force =    -0.00023367   -0.00014047   -0.00045120
     atom   26 type  1   force =     0.00023691   -0.00013121   -0.00044778
     atom   27 type  1   force =    -0.00000311    0.00135260   -0.00006799
     atom   28 type  1   force =     0.00000543    0.00000004   -0.01742990
     atom   29 type  1   force =     0.00528083    0.01030350    0.00344426
     atom   30 type  1   force =    -0.00529022    0.01021498    0.00337160
     atom   31 type  1   force =     0.01160397   -0.00055507    0.00347204
     atom   32 type  1   force =    -0.00015396    0.00000030    0.00842899
     atom   33 type  1   force =    -0.01144965   -0.00054986    0.00334272
     atom   34 type  1   force =     0.00624299   -0.00975427    0.00343658
     atom   35 type  1   force =    -0.00624267   -0.00965936    0.00337997
     atom   36 type  1   force =    -0.00000410   -0.00000023   -0.01935907
     atom   37 type  2   force =    -0.00026310    0.00000023   -0.02149595
     atom   38 type  3   force =    -0.00077360    0.00000038   -0.08230165

     Total force =     0.001191     Total SCF correction =     0.000016

     Total 3D-RISM Solvation Force =     0.094224

     Writing output data file Cu-vib.save
 
     init_run     :    382.74s CPU    194.16s WALL (       1 calls)
     electrons    :   6994.52s CPU   3563.55s WALL (       1 calls)
     forces       :     25.75s CPU     13.29s WALL (       1 calls)

     Called by init_run:
     wfcinit      :     58.68s CPU     30.27s WALL (       1 calls)
     wfcinit:atom :      0.02s CPU      0.02s WALL (      34 calls)
     wfcinit:wfcr :     58.28s CPU     29.93s WALL (      34 calls)
     potinit      :    314.41s CPU    159.23s WALL (       1 calls)

     Called by electrons:
     c_bands      :   3927.36s CPU   2018.81s WALL (      34 calls)
     sum_band     :    546.41s CPU    279.09s WALL (      34 calls)
     v_of_rho     :     44.95s CPU     22.20s WALL (      34 calls)
     v_h          :      0.69s CPU      0.54s WALL (      68 calls)
     v_xc         :     46.17s CPU     22.54s WALL (      35 calls)
     newd         :      3.30s CPU      1.24s WALL (      34 calls)
     PAW_pot      :      5.14s CPU      2.77s WALL (      34 calls)
     mix_rho      :      0.57s CPU      0.57s WALL (      34 calls)

     Called by c_bands:
     init_us_2    :      2.59s CPU      1.51s WALL (    2380 calls)
     crmmdiagg    :   2479.71s CPU   1289.22s WALL (    1156 calls)
     wfcrot       :   1425.80s CPU    716.31s WALL (    1122 calls)
     gsorth       :     75.02s CPU     40.69s WALL (    1156 calls)

     Called by sum_band:
     sum_band:bec :      3.56s CPU      1.25s WALL (    1156 calls)
     addusdens    :      4.78s CPU      1.23s WALL (      34 calls)

     Called by *rmmdiagg:
     h_psi        :   3548.07s CPU   1794.51s WALL (    9954 calls)
     s_psi        :     43.66s CPU     27.05s WALL (    9954 calls)
     cdiaghg      :    146.23s CPU     78.60s WALL (    1122 calls)
     cdiaghg:chol :      5.91s CPU      2.83s WALL (    1122 calls)
     cdiaghg:inve :      3.89s CPU      1.83s WALL (    1122 calls)
     cdiaghg:para :      4.67s CPU      2.00s WALL (    2244 calls)

     Called by h_psi:
     h_psi:pot    :   3546.72s CPU   1793.11s WALL (    9954 calls)
     h_psi:calbec :    124.54s CPU     68.22s WALL (    9954 calls)
     vloc_psi     :   3371.53s CPU   1696.91s WALL (    9954 calls)
     add_vuspsi   :     50.44s CPU     27.81s WALL (    9954 calls)

     General routines
     calbec       :    163.20s CPU     87.59s WALL (   11246 calls)
     fft          :     28.02s CPU     15.98s WALL (    2408 calls)
     ffts         :      0.16s CPU      0.16s WALL (      68 calls)
     fftw         :   3805.32s CPU   1911.65s WALL ( 1976242 calls)
     fftc         :      0.15s CPU      0.15s WALL (      68 calls)
     interpolate  :      0.60s CPU      0.60s WALL (      68 calls)
 
     Parallel routines
     fft_scatter  :   2541.92s CPU   1437.28s WALL ( 2073818 calls)

     PAW routines
     PAW_pot      :      5.14s CPU      2.77s WALL (      34 calls)

     RISM routines
     1DRISM_pre   :     28.58s CPU     14.24s WALL (       1 calls)
     1DRISM_run   :      0.63s CPU      1.18s WALL (       1 calls)
     3DRISM_pre   :     10.66s CPU      6.39s WALL (       1 calls)
     3DRISM_run   :   2766.09s CPU   1389.17s WALL (      34 calls)
     3DRISM_for   :      4.97s CPU      2.89s WALL (       1 calls)
     3DRISM_vsol  :      0.22s CPU      0.22s WALL (      34 calls)
 
     PWSCF        :     2h 6m CPU        1h 4m WALL

 
   This run was terminated on:  17:57:50  10Feb2026            

=------------------------------------------------------------------------------=
   JOB DONE.
=------------------------------------------------------------------------------=
