
     Program PWSCF v.6.1 starts on 10Feb2026 at 23:26:50 

     This program is part of the open-source Quantum ESPRESSO suite
     for quantum simulation of materials; please cite
         "P. Giannozzi et al., J. Phys.:Condens. Matter 21 395502 (2009);
          URL http://www.quantum-espresso.org", 
     in publications or presentations arising from this work. More details at
     http://www.quantum-espresso.org/quote

     Parallel version (MPI & OpenMP), running on     480 processor cores
     Number of MPI processes:               240
     Threads/MPI process:                     2
     R & G space division:  proc/nbgrp/npool/nimage =     240
     Reading input from espresso.pwi

     Current dimensions of program PWSCF are:
     Max number of different atomic species (ntypx) = 10
     Max number of k-points (npk) =  40000
     Max angular momentum in pseudopotentials (lmaxx) =  3

     IMPORTANT: XC functional enforced from input :
     Exchange-correlation      = VDW-DF2 ( 1  4 13  0 2 0)
     Any further DFT definition will be discarded
     Please, verify this is what you really want

               file Cu.pbe-dn-kjpaw_psl.1.0.0.UPF: wavefunction(s)  4S 3D renormalized
               file C.pbe-n-kjpaw_psl.1.0.0.UPF: wavefunction(s)  2S 2P renormalized
               file O.pbe-n-kjpaw_psl.1.0.0.UPF: wavefunction(s)  2S 2P renormalized
     Message from routine iosys_1drism:
     default density from MOL file(H2O.tip5p.MOL) is used

     Subspace diagonalization in iterative solution of the eigenvalue problem:
     one sub-group per band group will be used
     ELPA distributed-memory algorithm (size of sub-group: 10* 10 procs)


     Molecule # 1 for H2O read from file:
     /work/gf93/f93007/QE/pseudo/H2O.tip5p.MOL
     Density:
         0.72794769E+02 cell^-1
         0.49533750E-02 bohr^-3
         0.55506881E+02 mol/L
         0.99997200E+00 g/cm^3
     Permittivity:
        78.355300
     Number of atoms:   5
     Atoms:
       #  atom      X (angs)      Y (angs)      Z (angs)      Q (e)         E (kcal/mol)  S (angs)
       1  O/h2o     0.00000000    0.00000000    0.00000000    0.00000000    0.16000000    3.12000000
       2  H/h2o     0.75695000    0.58588000    0.00000000    0.24100000    0.04600000    1.00000000
       3  H/h2o    -0.75695000    0.58588000    0.00000000    0.24100000    0.04600000    1.00000000
       4  L/h2o     0.00000000   -0.40415000    0.57154000   -0.24100000    0.04600000    1.80000000
       5  L/h2o     0.00000000   -0.40415000   -0.57154000   -0.24100000    0.04600000    1.80000000


     Molecule # 2 for K+ read from file:
     /work/gf93/f93007/QE/pseudo/K+.oplsaa.MOL
     Density:
         0.13114549E+01 cell^-1
         0.89238936E-04 bohr^-3
         0.10000000E+01 mol/L
         0.39098300E-01 g/cm^3
     Number of atoms:   1
     Atoms:
       #  atom      X (angs)      Y (angs)      Z (angs)      Q (e)         E (kcal/mol)  S (angs)
       1  K         0.00000000    0.00000000    0.00000000    1.00000000    0.00032800    4.93462800


     Molecule # 3 for OH- read from file:
     /work/gf93/f93007/QE/pseudo/OH-.oplsaa.MOL
     Density:
         0.13114549E+01 cell^-1
         0.89238936E-04 bohr^-3
         0.10000000E+01 mol/L
         0.17007340E-01 g/cm^3
     Number of atoms:   2
     Atoms:
       #  atom      X (angs)      Y (angs)      Z (angs)      Q (e)         E (kcal/mol)  S (angs)
       1  O/oh      0.00000000    0.00000000    0.00000000   -1.30000000    0.25000000    3.20000000
       2  H/oh      0.95300000    0.00000000    0.00000000    0.30000000    0.04600000    1.00000000


     Number of total sites:   8
     Index site -> solvent: 
       1  1  1  1  1  2  3  3
     Index site -> atom (in a solvent): 
       1  2  3  4  5  1  1  2


     Number of unique sites:   6
     Multiplicity of unique site: 
       1  2  2  1  1  1
     Index unique site -> site: 
       1:  1
       2:  2  3
       3:  4  5
       4:  6
       5:  7
       6:  8


     1D-RISM info
     ------------
     closure equation        =           KH
     temperature             =     300.0000  kelvin
     coulomb smearing radius =       2.0000  bohr
     number of solvent sites =            8
     nv * (nv + 1) / 2       =           36
     number of grids         =         8345
     maximum of R-space      =     999.8802  bohr
     maximum of G-space      =      26.2150  bohr^-1
     #R-grids in local       =           66
     #G-grids in local       =           66
     number of iterations    =       100000
     convergence threshold   =      1.0E-08
     Gaussian width of bonds =       0.2530  bohr
     size of MDIIS           =           20
     step of MDIIS           =       0.1000
     number of processes     =          128


     Radial FFT:
     number of radial grids   =         8345
     number of FFT grids      =        16689
     good number of FFT grids =           -1
     R-space grids:
       0.00000000E+00  0.11983223E+00  0.23966447E+00  0.35949670E+00  0.47932894E+00
       0.59916117E+00  0.71899341E+00  0.83882564E+00  0.95865788E+00  0.10784901E+01
       ..............  ..............  ..............  ..............  ..............
       0.99880168E+03  0.99892151E+03  0.99904134E+03  0.99916117E+03  0.99928101E+03
       0.99940084E+03  0.99952067E+03  0.99964050E+03  0.99976034E+03  0.99988017E+03
     G-space grids:
       0.00000000E+00  0.31417809E-02  0.62835618E-02  0.94253427E-02  0.12567124E-01
       0.15708904E-01  0.18850685E-01  0.21992466E-01  0.25134247E-01  0.28276028E-01
       ..............  ..............  ..............  ..............  ..............
       0.26186744E+02  0.26189886E+02  0.26193027E+02  0.26196169E+02  0.26199311E+02
       0.26202453E+02  0.26205594E+02  0.26208736E+02  0.26211878E+02  0.26215020E+02


     MPI for site:
     number of site groups     =          128
     #procs in a site group    =            1
     this proc in a site group =            0
     the root in a site group  =            0
     this site group           =            0
     inter-site group comm.    =           20
     intra-site group comm.    =            2
     total number of sites     =           36
     starting index of sites   =            1
     ending index of sites     =            1


     MPI for task:
     #procs in a task group    =          128
     this proc in a task group =            0
     the root in a task group  =            0
     task group comm.          =           20
     total number of vectors   =         8345
     starting index of vectors =            1
     ending index of vectors   =           66
     lengths of vectors        = 
        66   66   66   66   66   66   66   66   66   66
        66   66   66   66   66   66   66   66   66   66
        66   66   66   66   66   65   65   65   65   65
        65   65   65   65   65   65   65   65   65   65
        65   65   65   65   65   65   65   65   65   65
        65   65   65   65   65   65   65   65   65   65
        65   65   65   65   65   65   65   65   65   65
        65   65   65   65   65   65   65   65   65   65
        65   65   65   65   65   65   65   65   65   65
        65   65   65   65   65   65   65   65   65   65
        65   65   65   65   65   65   65   65   65   65
        65   65   65   65   65   65   65   65   65   65
        65   65   65   65   65   65   65   65
     displacement of vectors   = 
         0   66  132  198  264  330  396  462  528  594
       660  726  792  858  924  990 1056 1122 1188 1254
      1320 1386 1452 1518 1584 1650 1715 1780 1845 1910
      1975 2040 2105 2170 2235 2300 2365 2430 2495 2560
      2625 2690 2755 2820 2885 2950 3015 3080 3145 3210
      3275 3340 3405 3470 3535 3600 3665 3730 3795 3860
      3925 3990 4055 4120 4185 4250 4315 4380 4445 4510
      4575 4640 4705 4770 4835 4900 4965 5030 5095 5160
      5225 5290 5355 5420 5485 5550 5615 5680 5745 5810
      5875 5940 6005 6070 6135 6200 6265 6330 6395 6460
      6525 6590 6655 6720 6785 6850 6915 6980 7045 7110
      7175 7240 7305 7370 7435 7500 7565 7630 7695 7760
      7825 7890 7955 8020 8085 8150 8215 8280


     Correlation function is read from file


     1D-RISM Calculation

     iter. #     1  RMS(g-h-1)= 9.995E-09  nbox=  0  T=  300.00K

     End of 1D-RISM calculation


     convergence has been achieved in     1 iterations


     Chemical potential of solvation

     H2O        H2O        Closure      0.106068E+01 kcal/mol
                           GaussFluct  -0.737993E+01 kcal/mol

                K+         Closure     -0.288345E+00 kcal/mol
                           GaussFluct  -0.358438E+00 kcal/mol

                OH-        Closure     -0.764259E+00 kcal/mol
                           GaussFluct  -0.855991E+00 kcal/mol

                Total      Closure      0.808077E-02 kcal/mol
                           GaussFluct  -0.859435E+01 kcal/mol

     K+         H2O        Closure     -0.160051E+02 kcal/mol
                           GaussFluct  -0.198958E+02 kcal/mol

                K+         Closure      0.351561E+06 kcal/mol
                           GaussFluct   0.351561E+06 kcal/mol

                OH-        Closure     -0.351612E+06 kcal/mol
                           GaussFluct  -0.351612E+06 kcal/mol

                Total      Closure     -0.668098E+02 kcal/mol
                           GaussFluct  -0.707592E+02 kcal/mol

     OH-        H2O        Closure     -0.424217E+02 kcal/mol
                           GaussFluct  -0.475134E+02 kcal/mol

                K+         Closure     -0.351612E+06 kcal/mol
                           GaussFluct  -0.351612E+06 kcal/mol

                OH-        Closure      0.351561E+06 kcal/mol
                           GaussFluct   0.351561E+06 kcal/mol

                Total      Closure     -0.934347E+02 kcal/mol
                           GaussFluct  -0.986502E+02 kcal/mol

 
     Parallelization info
     --------------------
     sticks:   dense  smooth     PW     G-vecs:    dense   smooth      PW
     Min          40      16      4                16136     4064     568
     Max          41      17      5                16171     4100     615
     Sum        9661    3865   1057              3875677   980529  140539
 

     Title: 
     Cu-vib                                                                     


     bravais-lattice index     =            0
     lattice parameter (alat)  =      14.9832  a.u.
     unit-cell volume          =   14695.9939 (a.u.)^3
     number of atoms/cell      =           38
     number of atomic types    =            3
     number of electrons       =       406.00
     number of Kohn-Sham states=          244
     kinetic-energy cutoff     =      62.4738  Ry
     charge density cutoff     =     624.7385  Ry
     convergence threshold     =      7.3E-12
     mixing beta               =       0.3333
     number of iterations used =           12  plain     mixing
     Exchange-correlation      = VDW-DF2 ( 1  4 13  0 2 0)

     Effective Screening Medium Method
     =================================
     Boundary Conditions: Vacuum-Slab-Vacuum
     total charge in unit cell        =   0.0000
     grid points for fit at edges     =        4 
 

     celldm(1)=  14.983209  celldm(2)=   0.000000  celldm(3)=   0.000000
     celldm(4)=   0.000000  celldm(5)=   0.000000  celldm(6)=   0.000000

     crystal axes: (cart. coord. in units of alat)
               a(1) = (   1.000000   0.000000   0.000000 )  
               a(2) = (   0.500000   0.866025   0.000000 )  
               a(3) = (   0.000000   0.000000   5.044917 )  

     reciprocal axes: (cart. coord. in units 2 pi/alat)
               b(1) = (  1.000000 -0.577351  0.000000 )  
               b(2) = (  0.000000  1.154701  0.000000 )  
               b(3) = (  0.000000  0.000000  0.198219 )  


     PseudoPot. # 1 for Cu read from file:
     /work/gf93/f93007/QE/pseudo/Cu.pbe-dn-kjpaw_psl.1.0.0.UPF
     MD5 check sum: 67c40f9e1593dc2d139023e70404cc2a
     Pseudo is Projector augmented-wave + core cor, Zval = 11.0
     Generated using "atomic" code by A. Dal Corso  v.6.1 svn rev. 13369
     Shape of augmentation charge: PSQ
     Using radial grid of 1199 points,  6 beta functions with: 
                l(1) =   0
                l(2) =   0
                l(3) =   1
                l(4) =   1
                l(5) =   2
                l(6) =   2
     Q(r) pseudized with 0 coefficients 


     PseudoPot. # 2 for  C read from file:
     /work/gf93/f93007/QE/pseudo/C.pbe-n-kjpaw_psl.1.0.0.UPF
     MD5 check sum: 92a742b3ac0ce1af44b5aa3f9352ca21
     Pseudo is Projector augmented-wave + core cor, Zval =  4.0
     Generated using "atomic" code by A. Dal Corso  v.6.1 svn rev. 13369
     Shape of augmentation charge: PSQ
     Using radial grid of 1073 points,  4 beta functions with: 
                l(1) =   0
                l(2) =   0
                l(3) =   1
                l(4) =   1
     Q(r) pseudized with 0 coefficients 


     PseudoPot. # 3 for  O read from file:
     /work/gf93/f93007/QE/pseudo/O.pbe-n-kjpaw_psl.1.0.0.UPF
     MD5 check sum: c61d840054b6bba219e553541e327118
     Pseudo is Projector augmented-wave + core cor, Zval =  6.0
     Generated using "atomic" code by A. Dal Corso  v.6.1 svn rev. 13369
     Shape of augmentation charge: PSQ
     Using radial grid of 1095 points,  4 beta functions with: 
                l(1) =   0
                l(2) =   0
                l(3) =   1
                l(4) =   1
     Q(r) pseudized with 0 coefficients 


     vdW kernel table read from file vdW_kernel_table
     MD5 check sum: 6d69797d2e858e93e031fb7d16d30e50

     atomic species   valence    mass     pseudopotential
        Cu            11.00    63.54600     Cu( 1.00)
        C              4.00    12.01100      C( 1.00)
        O              6.00    15.99900      O( 1.00)

     No symmetry found


                                    s                        frac. trans.

      isym =  1     identity                                     

 cryst.   s( 1) = (     1          0          0      )
                  (     0          1          0      )
                  (     0          0          1      )

 cart.    s( 1) = (  1.0000000  0.0000000  0.0000000 )
                  (  0.0000000  1.0000000  0.0000000 )
                  (  0.0000000  0.0000000  1.0000000 )


   Cartesian axes

     site n.     atom                  positions (alat units)
         1           Cu  tau(   1) = (   0.0000000   0.0000000  -0.8248888  )
         2           Cu  tau(   2) = (   0.3333333   0.0000000  -0.8248888  )
         3           Cu  tau(   3) = (   0.6666667   0.0000000  -0.8248888  )
         4           Cu  tau(   4) = (   0.1666667   0.2886751  -0.8248888  )
         5           Cu  tau(   5) = (   0.5000000   0.2886751  -0.8248888  )
         6           Cu  tau(   6) = (   0.8333333   0.2886751  -0.8248888  )
         7           Cu  tau(   7) = (   0.3333333   0.5773503  -0.8248888  )
         8           Cu  tau(   8) = (   0.6666667   0.5773503  -0.8248888  )
         9           Cu  tau(   9) = (   1.0000000   0.5773503  -0.8248888  )
        10           Cu  tau(  10) = (   0.1679527   0.0969677  -0.5550278  )
        11           Cu  tau(  11) = (   0.5000001   0.0963555  -0.5546924  )
        12           Cu  tau(  12) = (   0.8320475   0.0969677  -0.5550278  )
        13           Cu  tau(  13) = (   0.3334463   0.3848350  -0.5546924  )
        14           Cu  tau(  14) = (   0.6665540   0.3848351  -0.5546924  )
        15           Cu  tau(  15) = (   1.0000000   0.3851225  -0.5554971  )
        16           Cu  tau(  16) = (   0.5000002   0.6720902  -0.5550277  )
        17           Cu  tau(  17) = (   0.8335259   0.6734639  -0.5554970  )
        18           Cu  tau(  18) = (   1.1664742   0.6734639  -0.5554970  )
        19           Cu  tau(  19) = (   0.0000002   0.1919045  -0.2895402  )
        20           Cu  tau(  20) = (   0.3359748   0.1939752  -0.2811846  )
        21           Cu  tau(  21) = (   0.6640256   0.1939752  -0.2811846  )
        22           Cu  tau(  22) = (   0.1667941   0.4810516  -0.2872685  )
        23           Cu  tau(  23) = (   0.5000002   0.4780753  -0.2811846  )
        24           Cu  tau(  24) = (   0.8332061   0.4810517  -0.2872684  )
        25           Cu  tau(  25) = (   0.3338062   0.7700731  -0.2895404  )
        26           Cu  tau(  26) = (   0.6661942   0.7700731  -0.2895403  )
        27           Cu  tau(  27) = (   1.0000001   0.7699472  -0.2872685  )
        28           Cu  tau(  28) = (   0.0000000   0.0000002  -0.0207473  )
        29           Cu  tau(  29) = (   0.3317716  -0.0034666  -0.0198287  )
        30           Cu  tau(  30) = (   0.6682285  -0.0034665  -0.0198288  )
        31           Cu  tau(  31) = (   0.1628835   0.2890560  -0.0198289  )
        32           Cu  tau(  32) = (   0.5000001   0.2886752   0.0000000  )
        33           Cu  tau(  33) = (   0.8371164   0.2890560  -0.0198289  )
        34           Cu  tau(  34) = (   0.3311120   0.5804359  -0.0198289  )
        35           Cu  tau(  35) = (   0.6688881   0.5804359  -0.0198288  )
        36           Cu  tau(  36) = (   1.0000000   0.5773501  -0.0191733  )
        37           C   tau(  37) = (   0.5012606   0.2886747   0.2397149  )
        38           O   tau(  38) = (   0.4999989   0.2886744   0.3848034  )

   Crystallographic axes

     site n.     atom                  positions (cryst. coord.)
         1           Cu  tau(   1) = (  0.0000000  0.0000000 -0.1635089  )
         2           Cu  tau(   2) = (  0.3333333  0.0000000 -0.1635089  )
         3           Cu  tau(   3) = (  0.6666667  0.0000000 -0.1635089  )
         4           Cu  tau(   4) = ( -0.0000001  0.3333335 -0.1635089  )
         5           Cu  tau(   5) = (  0.3333333  0.3333335 -0.1635089  )
         6           Cu  tau(   6) = (  0.6666666  0.3333335 -0.1635089  )
         7           Cu  tau(   7) = ( -0.0000002  0.6666670 -0.1635089  )
         8           Cu  tau(   8) = (  0.3333332  0.6666670 -0.1635089  )
         9           Cu  tau(   9) = (  0.6666665  0.6666670 -0.1635089  )
        10           Cu  tau(  10) = (  0.1119684  0.1119687 -0.1100172  )
        11           Cu  tau(  11) = (  0.4443691  0.1112618 -0.1099508  )
        12           Cu  tau(  12) = (  0.7760631  0.1119687 -0.1100172  )
        13           Cu  tau(  13) = (  0.1112615  0.4443694 -0.1099508  )
        14           Cu  tau(  14) = (  0.4443692  0.4443695 -0.1099507  )
        15           Cu  tau(  15) = (  0.7776494  0.4447013 -0.1101102  )
        16           Cu  tau(  16) = (  0.1119685  0.7760633 -0.1100172  )
        17           Cu  tau(  17) = (  0.4447012  0.7776495 -0.1101102  )
        18           Cu  tau(  18) = (  0.7776494  0.7776495 -0.1101102  )
        19           Cu  tau(  19) = ( -0.1107960  0.2215923 -0.0573925  )
        20           Cu  tau(  20) = (  0.2239831  0.2239834 -0.0557362  )
        21           Cu  tau(  21) = (  0.5520338  0.2239834 -0.0557362  )
        22           Cu  tau(  22) = ( -0.1109413  0.5554709 -0.0569422  )
        23           Cu  tau(  23) = (  0.2239831  0.5520341 -0.0557362  )
        24           Cu  tau(  24) = (  0.5554707  0.5554709 -0.0569421  )
        25           Cu  tau(  25) = ( -0.1107959  0.8892042 -0.0573925  )
        26           Cu  tau(  26) = (  0.2215921  0.8892042 -0.0573925  )
        27           Cu  tau(  27) = (  0.5554707  0.8890589 -0.0569422  )
        28           Cu  tau(  28) = ( -0.0000001  0.0000002 -0.0041125  )
        29           Cu  tau(  29) = (  0.3337730 -0.0040029 -0.0039304  )
        30           Cu  tau(  30) = (  0.6702299 -0.0040028 -0.0039305  )
        31           Cu  tau(  31) = ( -0.0040031  0.3337733 -0.0039305  )
        32           Cu  tau(  32) = (  0.3333333  0.3333336  0.0000000  )
        33           Cu  tau(  33) = (  0.6702298  0.3337733 -0.0039305  )
        34           Cu  tau(  34) = ( -0.0040030  0.6702300 -0.0039305  )
        35           Cu  tau(  35) = (  0.3337731  0.6702300 -0.0039305  )
        36           Cu  tau(  36) = (  0.6666666  0.6666667 -0.0038005  )
        37           C   tau(  37) = (  0.3345941  0.3333330  0.0475161  )
        38           O   tau(  38) = (  0.3333326  0.3333326  0.0762755  )

     number of k points=    34  Marzari-Vanderbilt smearing, width (Ry)=  0.0073
                       cart. coord. in units 2pi/alat
        k(    1) = (   0.0000000   0.0000000   0.0000000), wk =   0.0312500
        k(    2) = (   0.0000000   0.1443376   0.0000000), wk =   0.0625000
        k(    3) = (   0.0000000   0.2886753   0.0000000), wk =   0.0625000
        k(    4) = (   0.0000000   0.4330129   0.0000000), wk =   0.0625000
        k(    5) = (   0.0000000  -0.5773505   0.0000000), wk =   0.0312500
        k(    6) = (   0.1250000  -0.0721688   0.0000000), wk =   0.0625000
        k(    7) = (   0.1250000   0.0721688   0.0000000), wk =   0.0625000
        k(    8) = (   0.1250000   0.2165065   0.0000000), wk =   0.0625000
        k(    9) = (   0.1250000   0.3608441   0.0000000), wk =   0.0625000
        k(   10) = (   0.1250000  -0.6495194   0.0000000), wk =   0.0625000
        k(   11) = (   0.1250000  -0.5051817   0.0000000), wk =   0.0625000
        k(   12) = (   0.1250000  -0.3608441   0.0000000), wk =   0.0625000
        k(   13) = (   0.1250000  -0.2165065   0.0000000), wk =   0.0625000
        k(   14) = (   0.2500000  -0.1443376   0.0000000), wk =   0.0625000
        k(   15) = (   0.2500000   0.0000000   0.0000000), wk =   0.0625000
        k(   16) = (   0.2500000   0.1443376   0.0000000), wk =   0.0625000
        k(   17) = (   0.2500000   0.2886753   0.0000000), wk =   0.0625000
        k(   18) = (   0.2500000  -0.7216882   0.0000000), wk =   0.0625000
        k(   19) = (   0.2500000  -0.5773505   0.0000000), wk =   0.0625000
        k(   20) = (   0.2500000  -0.4330129   0.0000000), wk =   0.0625000
        k(   21) = (   0.2500000  -0.2886753   0.0000000), wk =   0.0625000
        k(   22) = (   0.3750000  -0.2165065   0.0000000), wk =   0.0625000
        k(   23) = (   0.3750000  -0.0721688   0.0000000), wk =   0.0625000
        k(   24) = (   0.3750000   0.0721688   0.0000000), wk =   0.0625000
        k(   25) = (   0.3750000   0.2165065   0.0000000), wk =   0.0625000
        k(   26) = (   0.3750000  -0.7938570   0.0000000), wk =   0.0625000
        k(   27) = (   0.3750000  -0.6495194   0.0000000), wk =   0.0625000
        k(   28) = (   0.3750000  -0.5051817   0.0000000), wk =   0.0625000
        k(   29) = (   0.3750000  -0.3608441   0.0000000), wk =   0.0625000
        k(   30) = (  -0.5000000   0.2886753   0.0000000), wk =   0.0312500
        k(   31) = (  -0.5000000   0.4330129   0.0000000), wk =   0.0625000
        k(   32) = (  -0.5000000   0.5773505   0.0000000), wk =   0.0625000
        k(   33) = (  -0.5000000   0.7216882   0.0000000), wk =   0.0625000
        k(   34) = (  -0.5000000  -0.2886753   0.0000000), wk =   0.0312500

                       cryst. coord.
        k(    1) = (   0.0000000   0.0000000   0.0000000), wk =   0.0312500
        k(    2) = (   0.0000000   0.1250000   0.0000000), wk =   0.0625000
        k(    3) = (   0.0000000   0.2500000   0.0000000), wk =   0.0625000
        k(    4) = (   0.0000000   0.3750000   0.0000000), wk =   0.0625000
        k(    5) = (   0.0000000  -0.5000000   0.0000000), wk =   0.0312500
        k(    6) = (   0.1250000   0.0000000   0.0000000), wk =   0.0625000
        k(    7) = (   0.1250000   0.1250000   0.0000000), wk =   0.0625000
        k(    8) = (   0.1250000   0.2500000   0.0000000), wk =   0.0625000
        k(    9) = (   0.1250000   0.3750000   0.0000000), wk =   0.0625000
        k(   10) = (   0.1250000  -0.5000000   0.0000000), wk =   0.0625000
        k(   11) = (   0.1250000  -0.3750000   0.0000000), wk =   0.0625000
        k(   12) = (   0.1250000  -0.2500000   0.0000000), wk =   0.0625000
        k(   13) = (   0.1250000  -0.1250000   0.0000000), wk =   0.0625000
        k(   14) = (   0.2500000   0.0000000   0.0000000), wk =   0.0625000
        k(   15) = (   0.2500000   0.1250000   0.0000000), wk =   0.0625000
        k(   16) = (   0.2500000   0.2500000   0.0000000), wk =   0.0625000
        k(   17) = (   0.2500000   0.3750000   0.0000000), wk =   0.0625000
        k(   18) = (   0.2500000  -0.5000000   0.0000000), wk =   0.0625000
        k(   19) = (   0.2500000  -0.3750000   0.0000000), wk =   0.0625000
        k(   20) = (   0.2500000  -0.2500000   0.0000000), wk =   0.0625000
        k(   21) = (   0.2500000  -0.1250000   0.0000000), wk =   0.0625000
        k(   22) = (   0.3750000   0.0000000   0.0000000), wk =   0.0625000
        k(   23) = (   0.3750000   0.1250000   0.0000000), wk =   0.0625000
        k(   24) = (   0.3750000   0.2500000   0.0000000), wk =   0.0625000
        k(   25) = (   0.3750000   0.3750000   0.0000000), wk =   0.0625000
        k(   26) = (   0.3750000  -0.5000000   0.0000000), wk =   0.0625000
        k(   27) = (   0.3750000  -0.3750000   0.0000000), wk =   0.0625000
        k(   28) = (   0.3750000  -0.2500000   0.0000000), wk =   0.0625000
        k(   29) = (   0.3750000  -0.1250000   0.0000000), wk =   0.0625000
        k(   30) = (  -0.5000000   0.0000000   0.0000000), wk =   0.0312500
        k(   31) = (  -0.5000000   0.1250000   0.0000000), wk =   0.0625000
        k(   32) = (  -0.5000000   0.2500000   0.0000000), wk =   0.0625000
        k(   33) = (  -0.5000000   0.3750000   0.0000000), wk =   0.0625000
        k(   34) = (  -0.5000000  -0.5000000   0.0000000), wk =   0.0312500

     Dense  grid:  3875677 G-vectors     FFT dimensions: ( 120, 120, 625)

     Smooth grid:   980529 G-vectors     FFT dimensions: (  75,  75, 384)

     Estimated max dynamical RAM per process >     140.99MB

     Estimated total allocated dynamical RAM >   33838.49MB

     Solute:
       # atom     E (kcal/mol)  S (angs)
       1  Cu      1.00000000    3.00000000    given
       2  Cu      1.00000000    3.00000000    given
       3  Cu      1.00000000    3.00000000    given
       4  Cu      1.00000000    3.00000000    given
       5  Cu      1.00000000    3.00000000    given
       6  Cu      1.00000000    3.00000000    given
       7  Cu      1.00000000    3.00000000    given
       8  Cu      1.00000000    3.00000000    given
       9  Cu      1.00000000    3.00000000    given
      10  Cu      1.00000000    3.00000000    given
      11  Cu      1.00000000    3.00000000    given
      12  Cu      1.00000000    3.00000000    given
      13  Cu      1.00000000    3.00000000    given
      14  Cu      1.00000000    3.00000000    given
      15  Cu      1.00000000    3.00000000    given
      16  Cu      1.00000000    3.00000000    given
      17  Cu      1.00000000    3.00000000    given
      18  Cu      1.00000000    3.00000000    given
      19  Cu      1.00000000    3.00000000    given
      20  Cu      1.00000000    3.00000000    given
      21  Cu      1.00000000    3.00000000    given
      22  Cu      1.00000000    3.00000000    given
      23  Cu      1.00000000    3.00000000    given
      24  Cu      1.00000000    3.00000000    given
      25  Cu      1.00000000    3.00000000    given
      26  Cu      1.00000000    3.00000000    given
      27  Cu      1.00000000    3.00000000    given
      28  Cu      1.00000000    3.00000000    given
      29  Cu      1.00000000    3.00000000    given
      30  Cu      1.00000000    3.00000000    given
      31  Cu      1.00000000    3.00000000    given
      32  Cu      1.00000000    3.00000000    given
      33  Cu      1.00000000    3.00000000    given
      34  Cu      1.00000000    3.00000000    given
      35  Cu      1.00000000    3.00000000    given
      36  Cu      1.00000000    3.00000000    given
      37  C       0.07000000    3.55000000    OPLS-AA
      38  O       0.17000000    3.00000000    OPLS-AA

     Wall:
       Density =    0.01000000  bohr^-3
       E       =    0.10000000  kcal/mol
       S       =    4.00000000  angs

     L.J. cutoff radius =       5.0000  S


     Laue-RISM info
     --------------
     closure equation        =           KH
     temperature             =     300.0000  kelvin
     coulomb smearing radius =       2.0000  bohr
     number of solvent sites =            6
     solvent sites           =    O/h2o   H/h2o   L/h2o       K
     solvent sites           =     O/oh    H/oh
     #R-grids in local       =        11250
     #Rz-grids (unit-cell)   =          384
     #Rz-grids (expand-cell) =          720
     #G-grids in local       =         4081
     #Gxy-grids in local     =           17
     #Gxy-shells in local    =           17
     number of iterations    =        10000
     convergence threshold   =      1.0E-06
     convergence level       =       0.8000
     size of MDIIS           =           20
     step of MDIIS           =       0.8000
     solvent cutoff          =     249.8954  Ry
     Custom grid:   980529 G-vectors     FFT dimensions: (  75,  75, 384)

     Boundary Conditions        : Vacuum-Slab-Solvent
     unit-cell (in bohr)        : [ -37.794523  37.794523]
     expand-cell (in bohr)      : [ -37.794523 103.934937]
     solvent of right (in bohr) : [  -8.267552 103.934937]
     buffer  of right (in bohr) : [ -18.109875  -8.267552]
     Gxy = 0 of right (in bohr) : [ -18.109875  82.872365]
     repulsive wall (in bohr)   : [  -Infinity -10.486273]
     reference of potential     : right-hand side
     #grids to fit at edges of unit-cell =    4
     Laue grid:     3865 Gxy-vectors     FFT dimensions: (  75,  75, 720)


     MPI for site:
     number of site groups     =            1
     #procs in a site group    =          240
     this proc in a site group =            0
     the root in a site group  =            0
     this site group           =            0
     inter-site group comm.    =           23
     intra-site group comm.    =            5
     total number of sites     =            6
     starting index of sites   =            1
     ending index of sites     =            6


     MPI for task:
     #procs in a task group    =          240
     this proc in a task group =            0
     the root in a task group  =            0
     task group comm.          =            5


     Initial potential from superposition of free atoms
     Check: negative starting charge=   -0.001648

     starting charge  405.99177, renormalised to  406.00000

     Correlation function is read from file


     negative rho (up, down):  1.648E-03 0.000E+00


     %%%%%%%%%%%%%%%%%%%%%%%%%%%%%%%%%%%%%%%%%%%%%%%%%%%%%%%%%%%%%%%%%%%%%%%%
     %                                                                      %
     % You are using vdW-DF, which was implemented by the Thonhauser group. %
     % Please cite the following two papers that made this development      %
     % possible and the two reviews that describe the various versions:     %
     %                                                                      %
     %   T. Thonhauser et al., PRL 115, 136402 (2015).                      %
     %   T. Thonhauser et al., PRB 76, 125112 (2007).                       %
     %   K. Berland et al., Rep. Prog. Phys. 78, 066501 (2015).             %
     %   D.C. Langreth et al., J. Phys.: Condens. Matter 21, 084203 (2009). %
     %                                                                      %
     %                                                                      %
     % If you are calculating the stress with vdW-DF, please also cite:     %
     %                                                                      %
     %   R. Sabatini et al., J. Phys.: Condens. Matter 24, 424209 (2012).   %
     %                                                                      %
     %%%%%%%%%%%%%%%%%%%%%%%%%%%%%%%%%%%%%%%%%%%%%%%%%%%%%%%%%%%%%%%%%%%%%%%%


     Carrying out vdW-DF run using the following parameters:
     Nqs    =  20  Npoints =  1024  r_max =  100.000
     q_mesh =  0.00001000  0.04494208  0.09755937  0.15916263
               0.23128650  0.31572767  0.41458969  0.53033537
               0.66584808  0.82450364  1.01025438  1.22772762
               1.48234092  1.78043706  2.12944203  2.53805004
               3.01644009  3.57652955  4.23227104  5.00000000


     -----------------------------------------------
     Non-local corr. energy    =      22.28442055 Ry
     -----------------------------------------------


     Laue-RISM Calculation

     convergence threshold    = 6.310E-06
     iter. #     1  RMS(g-h-1)= 6.011E-02  nbox=  0
     iter. #     2  RMS(g-h-1)= 4.571E-02  nbox=  1
     iter. #     3  RMS(g-h-1)= 2.759E-02  nbox=  2
     iter. #     4  RMS(g-h-1)= 1.159E-02  nbox=  3
     iter. #     5  RMS(g-h-1)= 1.009E-02  nbox=  4
     iter. #     6  RMS(g-h-1)= 8.187E-03  nbox=  5
     iter. #     7  RMS(g-h-1)= 6.887E-03  nbox=  6
     iter. #     8  RMS(g-h-1)= 6.119E-03  nbox=  7
     iter. #     9  RMS(g-h-1)= 5.678E-03  nbox=  8
     iter. #    10  RMS(g-h-1)= 5.337E-03  nbox=  9
     iter. #    11  RMS(g-h-1)= 4.990E-03  nbox= 10
     iter. #    12  RMS(g-h-1)= 4.659E-03  nbox= 11
     iter. #    13  RMS(g-h-1)= 4.384E-03  nbox= 12
     iter. #    14  RMS(g-h-1)= 4.173E-03  nbox= 13
     iter. #    15  RMS(g-h-1)= 3.830E-03  nbox= 14
     iter. #    16  RMS(g-h-1)= 3.520E-03  nbox= 15
     iter. #    17  RMS(g-h-1)= 3.191E-03  nbox= 16
     iter. #    18  RMS(g-h-1)= 2.967E-03  nbox= 17
     iter. #    19  RMS(g-h-1)= 2.590E-03  nbox= 18
     iter. #    20  RMS(g-h-1)= 2.316E-03  nbox= 19
     iter. #    21  RMS(g-h-1)= 2.155E-03  nbox= 20
     iter. #    22  RMS(g-h-1)= 1.969E-03  nbox= 20
     iter. #    23  RMS(g-h-1)= 1.808E-03  nbox= 20
     iter. #    24  RMS(g-h-1)= 1.700E-03  nbox= 20
     iter. #    25  RMS(g-h-1)= 1.660E-03  nbox= 20
     iter. #    26  RMS(g-h-1)= 1.568E-03  nbox= 20
     iter. #    27  RMS(g-h-1)= 1.498E-03  nbox= 20
     iter. #    28  RMS(g-h-1)= 1.472E-03  nbox= 20
     iter. #    29  RMS(g-h-1)= 1.410E-03  nbox= 20
     iter. #    30  RMS(g-h-1)= 1.355E-03  nbox= 20
     iter. #    31  RMS(g-h-1)= 1.325E-03  nbox= 20
     iter. #    32  RMS(g-h-1)= 1.268E-03  nbox= 20
     iter. #    33  RMS(g-h-1)= 1.243E-03  nbox= 20
     iter. #    34  RMS(g-h-1)= 1.196E-03  nbox= 20
     iter. #    35  RMS(g-h-1)= 1.161E-03  nbox= 20
     iter. #    36  RMS(g-h-1)= 1.102E-03  nbox= 20
     iter. #    37  RMS(g-h-1)= 1.067E-03  nbox= 20
     iter. #    38  RMS(g-h-1)= 1.052E-03  nbox= 20
     iter. #    39  RMS(g-h-1)= 1.012E-03  nbox= 20
     iter. #    40  RMS(g-h-1)= 9.766E-04  nbox= 20
     iter. #    41  RMS(g-h-1)= 9.649E-04  nbox= 20
     iter. #    42  RMS(g-h-1)= 9.365E-04  nbox= 20
     iter. #    43  RMS(g-h-1)= 9.123E-04  nbox= 20
     iter. #    44  RMS(g-h-1)= 9.075E-04  nbox= 20
     iter. #    45  RMS(g-h-1)= 8.841E-04  nbox= 20
     iter. #    46  RMS(g-h-1)= 8.686E-04  nbox= 20
     iter. #    47  RMS(g-h-1)= 8.631E-04  nbox= 20
     iter. #    48  RMS(g-h-1)= 8.453E-04  nbox= 20
     iter. #    49  RMS(g-h-1)= 8.325E-04  nbox= 20
     iter. #    50  RMS(g-h-1)= 8.364E-04  nbox= 20
     iter. #    51  RMS(g-h-1)= 8.344E-04  nbox= 20
     iter. #    52  RMS(g-h-1)= 8.315E-04  nbox= 20
     iter. #    53  RMS(g-h-1)= 8.313E-04  nbox=  2
     iter. #    54  RMS(g-h-1)= 8.222E-04  nbox=  3
     iter. #    55  RMS(g-h-1)= 8.130E-04  nbox=  4
     iter. #    56  RMS(g-h-1)= 7.983E-04  nbox=  5
     iter. #    57  RMS(g-h-1)= 7.871E-04  nbox=  6
     iter. #    58  RMS(g-h-1)= 7.788E-04  nbox=  7
     iter. #    59  RMS(g-h-1)= 7.689E-04  nbox=  8
     iter. #    60  RMS(g-h-1)= 7.580E-04  nbox=  9
     iter. #    61  RMS(g-h-1)= 7.463E-04  nbox= 10
     iter. #    62  RMS(g-h-1)= 7.315E-04  nbox= 11
     iter. #    63  RMS(g-h-1)= 7.459E-04  nbox= 12
     iter. #    64  RMS(g-h-1)= 7.064E-04  nbox= 13
     iter. #    65  RMS(g-h-1)= 6.994E-04  nbox= 14
     iter. #    66  RMS(g-h-1)= 6.818E-04  nbox= 15
     iter. #    67  RMS(g-h-1)= 6.691E-04  nbox= 16
     iter. #    68  RMS(g-h-1)= 6.598E-04  nbox= 17
     iter. #    69  RMS(g-h-1)= 6.553E-04  nbox=  2
     iter. #    70  RMS(g-h-1)= 6.448E-04  nbox=  3
     iter. #    71  RMS(g-h-1)= 6.542E-04  nbox=  4
     iter. #    72  RMS(g-h-1)= 6.255E-04  nbox=  5
     iter. #    73  RMS(g-h-1)= 6.223E-04  nbox=  6
     iter. #    74  RMS(g-h-1)= 6.091E-04  nbox=  7
     iter. #    75  RMS(g-h-1)= 6.001E-04  nbox=  8
     iter. #    76  RMS(g-h-1)= 5.945E-04  nbox=  9
     iter. #    77  RMS(g-h-1)= 5.847E-04  nbox= 10
     iter. #    78  RMS(g-h-1)= 5.752E-04  nbox= 11
     iter. #    79  RMS(g-h-1)= 5.564E-04  nbox= 12
     iter. #    80  RMS(g-h-1)= 5.347E-04  nbox= 13
     iter. #    81  RMS(g-h-1)= 5.197E-04  nbox= 14
     iter. #    82  RMS(g-h-1)= 5.097E-04  nbox= 15
     iter. #    83  RMS(g-h-1)= 4.950E-04  nbox= 16
     iter. #    84  RMS(g-h-1)= 4.830E-04  nbox= 17
     iter. #    85  RMS(g-h-1)= 4.788E-04  nbox=  2
     iter. #    86  RMS(g-h-1)= 4.676E-04  nbox=  3
     iter. #    87  RMS(g-h-1)= 4.575E-04  nbox=  4
     iter. #    88  RMS(g-h-1)= 4.542E-04  nbox=  5
     iter. #    89  RMS(g-h-1)= 4.432E-04  nbox=  6
     iter. #    90  RMS(g-h-1)= 4.342E-04  nbox=  7
     iter. #    91  RMS(g-h-1)= 4.252E-04  nbox=  8
     iter. #    92  RMS(g-h-1)= 4.180E-04  nbox=  9
     iter. #    93  RMS(g-h-1)= 4.116E-04  nbox= 10
     iter. #    94  RMS(g-h-1)= 4.047E-04  nbox= 11
     iter. #    95  RMS(g-h-1)= 3.962E-04  nbox= 12
     iter. #    96  RMS(g-h-1)= 3.889E-04  nbox= 13
     iter. #    97  RMS(g-h-1)= 3.864E-04  nbox= 14
     iter. #    98  RMS(g-h-1)= 3.813E-04  nbox= 15
     iter. #    99  RMS(g-h-1)= 3.768E-04  nbox= 16
     iter. #   100  RMS(g-h-1)= 3.694E-04  nbox= 17
     iter. #   101  RMS(g-h-1)= 3.676E-04  nbox=  2
     iter. #   102  RMS(g-h-1)= 3.607E-04  nbox=  3
     iter. #   103  RMS(g-h-1)= 3.536E-04  nbox=  4
     iter. #   104  RMS(g-h-1)= 3.466E-04  nbox=  5
     iter. #   105  RMS(g-h-1)= 3.422E-04  nbox=  6
     iter. #   106  RMS(g-h-1)= 3.359E-04  nbox=  7
     iter. #   107  RMS(g-h-1)= 3.298E-04  nbox=  8
     iter. #   108  RMS(g-h-1)= 3.225E-04  nbox=  9
     iter. #   109  RMS(g-h-1)= 3.168E-04  nbox= 10
     iter. #   110  RMS(g-h-1)= 3.112E-04  nbox= 11
     iter. #   111  RMS(g-h-1)= 3.104E-04  nbox= 12
     iter. #   112  RMS(g-h-1)= 3.045E-04  nbox= 13
     iter. #   113  RMS(g-h-1)= 3.011E-04  nbox= 14
     iter. #   114  RMS(g-h-1)= 2.969E-04  nbox= 15
     iter. #   115  RMS(g-h-1)= 2.951E-04  nbox= 16
     iter. #   116  RMS(g-h-1)= 2.892E-04  nbox= 17
     iter. #   117  RMS(g-h-1)= 2.882E-04  nbox=  2
     iter. #   118  RMS(g-h-1)= 2.835E-04  nbox=  3
     iter. #   119  RMS(g-h-1)= 2.808E-04  nbox=  4
     iter. #   120  RMS(g-h-1)= 2.780E-04  nbox=  5
     iter. #   121  RMS(g-h-1)= 2.753E-04  nbox=  6
     iter. #   122  RMS(g-h-1)= 2.717E-04  nbox=  7
     iter. #   123  RMS(g-h-1)= 2.689E-04  nbox=  8
     iter. #   124  RMS(g-h-1)= 2.670E-04  nbox=  9
     iter. #   125  RMS(g-h-1)= 2.653E-04  nbox= 10
     iter. #   126  RMS(g-h-1)= 2.646E-04  nbox= 11
     iter. #   127  RMS(g-h-1)= 2.628E-04  nbox= 12
     iter. #   128  RMS(g-h-1)= 2.606E-04  nbox= 13
     iter. #   129  RMS(g-h-1)= 2.579E-04  nbox= 14
     iter. #   130  RMS(g-h-1)= 2.556E-04  nbox= 15
     iter. #   131  RMS(g-h-1)= 2.538E-04  nbox= 16
     iter. #   132  RMS(g-h-1)= 2.515E-04  nbox= 17
     iter. #   133  RMS(g-h-1)= 2.511E-04  nbox=  2
     iter. #   134  RMS(g-h-1)= 2.490E-04  nbox=  3
     iter. #   135  RMS(g-h-1)= 2.476E-04  nbox=  4
     iter. #   136  RMS(g-h-1)= 2.467E-04  nbox=  5
     iter. #   137  RMS(g-h-1)= 2.460E-04  nbox=  6
     iter. #   138  RMS(g-h-1)= 2.447E-04  nbox=  7
     iter. #   139  RMS(g-h-1)= 2.433E-04  nbox=  8
     iter. #   140  RMS(g-h-1)= 2.418E-04  nbox=  9
     iter. #   141  RMS(g-h-1)= 2.399E-04  nbox= 10
     iter. #   142  RMS(g-h-1)= 2.396E-04  nbox= 11
     iter. #   143  RMS(g-h-1)= 2.371E-04  nbox= 12
     iter. #   144  RMS(g-h-1)= 2.355E-04  nbox= 13
     iter. #   145  RMS(g-h-1)= 2.336E-04  nbox= 14
     iter. #   146  RMS(g-h-1)= 2.321E-04  nbox= 15
     iter. #   147  RMS(g-h-1)= 2.321E-04  nbox= 16
     iter. #   148  RMS(g-h-1)= 2.303E-04  nbox= 17
     iter. #   149  RMS(g-h-1)= 2.300E-04  nbox=  2
     iter. #   150  RMS(g-h-1)= 2.280E-04  nbox=  3
     iter. #   151  RMS(g-h-1)= 2.261E-04  nbox=  4
     iter. #   152  RMS(g-h-1)= 2.245E-04  nbox=  5
     iter. #   153  RMS(g-h-1)= 2.231E-04  nbox=  6
     iter. #   154  RMS(g-h-1)= 2.213E-04  nbox=  7
     iter. #   155  RMS(g-h-1)= 2.196E-04  nbox=  8
     iter. #   156  RMS(g-h-1)= 2.179E-04  nbox=  9
     iter. #   157  RMS(g-h-1)= 2.163E-04  nbox= 10
     iter. #   158  RMS(g-h-1)= 2.152E-04  nbox= 11
     iter. #   159  RMS(g-h-1)= 2.140E-04  nbox= 12
     iter. #   160  RMS(g-h-1)= 2.128E-04  nbox= 13
     iter. #   161  RMS(g-h-1)= 2.117E-04  nbox= 14
     iter. #   162  RMS(g-h-1)= 2.104E-04  nbox= 15
     iter. #   163  RMS(g-h-1)= 2.103E-04  nbox= 16
     iter. #   164  RMS(g-h-1)= 2.087E-04  nbox= 17
     iter. #   165  RMS(g-h-1)= 2.086E-04  nbox=  2
     iter. #   166  RMS(g-h-1)= 2.069E-04  nbox=  3
     iter. #   167  RMS(g-h-1)= 2.057E-04  nbox=  4
     iter. #   168  RMS(g-h-1)= 2.040E-04  nbox=  5
     iter. #   169  RMS(g-h-1)= 2.045E-04  nbox=  6
     iter. #   170  RMS(g-h-1)= 2.018E-04  nbox=  7
     iter. #   171  RMS(g-h-1)= 2.008E-04  nbox=  8
     iter. #   172  RMS(g-h-1)= 1.992E-04  nbox=  9
     iter. #   173  RMS(g-h-1)= 1.983E-04  nbox= 10
     iter. #   174  RMS(g-h-1)= 1.972E-04  nbox= 11
     iter. #   175  RMS(g-h-1)= 1.975E-04  nbox= 12
     iter. #   176  RMS(g-h-1)= 1.959E-04  nbox= 13
     iter. #   177  RMS(g-h-1)= 1.956E-04  nbox= 14
     iter. #   178  RMS(g-h-1)= 1.947E-04  nbox= 15
     iter. #   179  RMS(g-h-1)= 1.935E-04  nbox= 16
     iter. #   180  RMS(g-h-1)= 1.929E-04  nbox= 17
     iter. #   181  RMS(g-h-1)= 1.924E-04  nbox=  2
     iter. #   182  RMS(g-h-1)= 1.913E-04  nbox=  3
     iter. #   183  RMS(g-h-1)= 1.896E-04  nbox=  4
     iter. #   184  RMS(g-h-1)= 1.875E-04  nbox=  5
     iter. #   185  RMS(g-h-1)= 1.857E-04  nbox=  6
     iter. #   186  RMS(g-h-1)= 1.840E-04  nbox=  7
     iter. #   187  RMS(g-h-1)= 1.832E-04  nbox=  8
     iter. #   188  RMS(g-h-1)= 1.816E-04  nbox=  9
     iter. #   189  RMS(g-h-1)= 1.801E-04  nbox= 10
     iter. #   190  RMS(g-h-1)= 1.788E-04  nbox= 11
     iter. #   191  RMS(g-h-1)= 1.774E-04  nbox= 12
     iter. #   192  RMS(g-h-1)= 1.776E-04  nbox= 13
     iter. #   193  RMS(g-h-1)= 1.753E-04  nbox= 14
     iter. #   194  RMS(g-h-1)= 1.742E-04  nbox= 15
     iter. #   195  RMS(g-h-1)= 1.724E-04  nbox= 16
     iter. #   196  RMS(g-h-1)= 1.702E-04  nbox= 17
     iter. #   197  RMS(g-h-1)= 1.700E-04  nbox=  2
     iter. #   198  RMS(g-h-1)= 1.676E-04  nbox=  3
     iter. #   199  RMS(g-h-1)= 1.654E-04  nbox=  4
     iter. #   200  RMS(g-h-1)= 1.631E-04  nbox=  5
     iter. #   201  RMS(g-h-1)= 1.617E-04  nbox=  6
     iter. #   202  RMS(g-h-1)= 1.594E-04  nbox=  7
     iter. #   203  RMS(g-h-1)= 1.571E-04  nbox=  8
     iter. #   204  RMS(g-h-1)= 1.551E-04  nbox=  9
     iter. #   205  RMS(g-h-1)= 1.532E-04  nbox= 10
     iter. #   206  RMS(g-h-1)= 1.517E-04  nbox= 11
     iter. #   207  RMS(g-h-1)= 1.503E-04  nbox= 12
     iter. #   208  RMS(g-h-1)= 1.492E-04  nbox= 13
     iter. #   209  RMS(g-h-1)= 1.474E-04  nbox= 14
     iter. #   210  RMS(g-h-1)= 1.455E-04  nbox= 15
     iter. #   211  RMS(g-h-1)= 1.434E-04  nbox= 16
     iter. #   212  RMS(g-h-1)= 1.459E-04  nbox= 17
     iter. #   213  RMS(g-h-1)= 1.491E-04  nbox=  2
     iter. #   214  RMS(g-h-1)= 1.416E-04  nbox=  3
     iter. #   215  RMS(g-h-1)= 1.398E-04  nbox=  4
     iter. #   216  RMS(g-h-1)= 1.384E-04  nbox=  5
     iter. #   217  RMS(g-h-1)= 1.374E-04  nbox=  6
     iter. #   218  RMS(g-h-1)= 1.359E-04  nbox=  7
     iter. #   219  RMS(g-h-1)= 1.343E-04  nbox=  8
     iter. #   220  RMS(g-h-1)= 1.328E-04  nbox=  9
     iter. #   221  RMS(g-h-1)= 1.332E-04  nbox= 10
     iter. #   222  RMS(g-h-1)= 1.303E-04  nbox= 11
     iter. #   223  RMS(g-h-1)= 1.298E-04  nbox= 12
     iter. #   224  RMS(g-h-1)= 1.282E-04  nbox= 13
     iter. #   225  RMS(g-h-1)= 1.269E-04  nbox= 14
     iter. #   226  RMS(g-h-1)= 1.256E-04  nbox= 15
     iter. #   227  RMS(g-h-1)= 1.249E-04  nbox= 16
     iter. #   228  RMS(g-h-1)= 1.238E-04  nbox= 17
     iter. #   229  RMS(g-h-1)= 1.235E-04  nbox=  2
     iter. #   230  RMS(g-h-1)= 1.220E-04  nbox=  3
     iter. #   231  RMS(g-h-1)= 1.208E-04  nbox=  4
     iter. #   232  RMS(g-h-1)= 1.195E-04  nbox=  5
     iter. #   233  RMS(g-h-1)= 1.205E-04  nbox=  6
     iter. #   234  RMS(g-h-1)= 1.179E-04  nbox=  7
     iter. #   235  RMS(g-h-1)= 1.171E-04  nbox=  8
     iter. #   236  RMS(g-h-1)= 1.162E-04  nbox=  9
     iter. #   237  RMS(g-h-1)= 1.153E-04  nbox= 10
     iter. #   238  RMS(g-h-1)= 1.162E-04  nbox= 11
     iter. #   239  RMS(g-h-1)= 1.138E-04  nbox= 12
     iter. #   240  RMS(g-h-1)= 1.134E-04  nbox= 13
     iter. #   241  RMS(g-h-1)= 1.125E-04  nbox= 14
     iter. #   242  RMS(g-h-1)= 1.116E-04  nbox= 15
     iter. #   243  RMS(g-h-1)= 1.104E-04  nbox= 16
     iter. #   244  RMS(g-h-1)= 1.094E-04  nbox= 17
     iter. #   245  RMS(g-h-1)= 1.091E-04  nbox=  2
     iter. #   246  RMS(g-h-1)= 1.080E-04  nbox=  3
     iter. #   247  RMS(g-h-1)= 1.069E-04  nbox=  4
     iter. #   248  RMS(g-h-1)= 1.060E-04  nbox=  5
     iter. #   249  RMS(g-h-1)= 1.054E-04  nbox=  6
     iter. #   250  RMS(g-h-1)= 1.045E-04  nbox=  7
     iter. #   251  RMS(g-h-1)= 1.035E-04  nbox=  8
     iter. #   252  RMS(g-h-1)= 1.026E-04  nbox=  9
     iter. #   253  RMS(g-h-1)= 1.018E-04  nbox= 10
     iter. #   254  RMS(g-h-1)= 1.012E-04  nbox= 11
     iter. #   255  RMS(g-h-1)= 1.005E-04  nbox= 12
     iter. #   256  RMS(g-h-1)= 1.001E-04  nbox= 13
     iter. #   257  RMS(g-h-1)= 9.925E-05  nbox= 14
     iter. #   258  RMS(g-h-1)= 9.841E-05  nbox= 15
     iter. #   259  RMS(g-h-1)= 9.743E-05  nbox= 16
     iter. #   260  RMS(g-h-1)= 9.627E-05  nbox= 17
     iter. #   261  RMS(g-h-1)= 9.599E-05  nbox=  2
     iter. #   262  RMS(g-h-1)= 9.486E-05  nbox=  3
     iter. #   263  RMS(g-h-1)= 9.346E-05  nbox=  4
     iter. #   264  RMS(g-h-1)= 9.321E-05  nbox=  5
     iter. #   265  RMS(g-h-1)= 9.186E-05  nbox=  6
     iter. #   266  RMS(g-h-1)= 9.084E-05  nbox=  7
     iter. #   267  RMS(g-h-1)= 8.980E-05  nbox=  8
     iter. #   268  RMS(g-h-1)= 8.879E-05  nbox=  9
     iter. #   269  RMS(g-h-1)= 8.778E-05  nbox= 10
     iter. #   270  RMS(g-h-1)= 8.771E-05  nbox= 11
     iter. #   271  RMS(g-h-1)= 8.639E-05  nbox= 12
     iter. #   272  RMS(g-h-1)= 8.537E-05  nbox= 13
     iter. #   273  RMS(g-h-1)= 8.419E-05  nbox= 14
     iter. #   274  RMS(g-h-1)= 8.357E-05  nbox= 15
     iter. #   275  RMS(g-h-1)= 8.261E-05  nbox= 16
     iter. #   276  RMS(g-h-1)= 8.169E-05  nbox= 17
     iter. #   277  RMS(g-h-1)= 8.143E-05  nbox=  2
     iter. #   278  RMS(g-h-1)= 8.032E-05  nbox=  3
     iter. #   279  RMS(g-h-1)= 7.931E-05  nbox=  4
     iter. #   280  RMS(g-h-1)= 7.877E-05  nbox=  5
     iter. #   281  RMS(g-h-1)= 7.796E-05  nbox=  6
     iter. #   282  RMS(g-h-1)= 7.717E-05  nbox=  7
     iter. #   283  RMS(g-h-1)= 7.618E-05  nbox=  8
     iter. #   284  RMS(g-h-1)= 7.524E-05  nbox=  9
     iter. #   285  RMS(g-h-1)= 7.419E-05  nbox= 10
     iter. #   286  RMS(g-h-1)= 7.419E-05  nbox= 11
     iter. #   287  RMS(g-h-1)= 7.250E-05  nbox= 12
     iter. #   288  RMS(g-h-1)= 7.186E-05  nbox= 13
     iter. #   289  RMS(g-h-1)= 7.080E-05  nbox= 14
     iter. #   290  RMS(g-h-1)= 6.990E-05  nbox= 15
     iter. #   291  RMS(g-h-1)= 6.926E-05  nbox= 16
     iter. #   292  RMS(g-h-1)= 6.843E-05  nbox= 17
     iter. #   293  RMS(g-h-1)= 6.860E-05  nbox=  2
     iter. #   294  RMS(g-h-1)= 6.771E-05  nbox=  3
     iter. #   295  RMS(g-h-1)= 6.714E-05  nbox=  4
     iter. #   296  RMS(g-h-1)= 6.689E-05  nbox=  5
     iter. #   297  RMS(g-h-1)= 6.638E-05  nbox=  6
     iter. #   298  RMS(g-h-1)= 6.596E-05  nbox=  7
     iter. #   299  RMS(g-h-1)= 6.541E-05  nbox=  8
     iter. #   300  RMS(g-h-1)= 6.480E-05  nbox=  9
     iter. #   301  RMS(g-h-1)= 6.419E-05  nbox= 10
     iter. #   302  RMS(g-h-1)= 6.348E-05  nbox= 11
     iter. #   303  RMS(g-h-1)= 6.289E-05  nbox= 12
     iter. #   304  RMS(g-h-1)= 6.249E-05  nbox= 13
     iter. #   305  RMS(g-h-1)= 6.211E-05  nbox= 14
     iter. #   306  RMS(g-h-1)= 6.165E-05  nbox= 15
     iter. #   307  RMS(g-h-1)= 6.133E-05  nbox= 16
     iter. #   308  RMS(g-h-1)= 6.109E-05  nbox= 17
     iter. #   309  RMS(g-h-1)= 6.102E-05  nbox=  2
     iter. #   310  RMS(g-h-1)= 6.076E-05  nbox=  3
     iter. #   311  RMS(g-h-1)= 6.054E-05  nbox=  4
     iter. #   312  RMS(g-h-1)= 6.030E-05  nbox=  5
     iter. #   313  RMS(g-h-1)= 6.007E-05  nbox=  6
     iter. #   314  RMS(g-h-1)= 5.994E-05  nbox=  7
     iter. #   315  RMS(g-h-1)= 5.963E-05  nbox=  8
     iter. #   316  RMS(g-h-1)= 5.931E-05  nbox=  9
     iter. #   317  RMS(g-h-1)= 5.896E-05  nbox= 10
     iter. #   318  RMS(g-h-1)= 5.940E-05  nbox= 11
     iter. #   319  RMS(g-h-1)= 5.845E-05  nbox= 12
     iter. #   320  RMS(g-h-1)= 5.851E-05  nbox= 13
     iter. #   321  RMS(g-h-1)= 5.814E-05  nbox= 14
     iter. #   322  RMS(g-h-1)= 5.795E-05  nbox= 15
     iter. #   323  RMS(g-h-1)= 5.769E-05  nbox= 16
     iter. #   324  RMS(g-h-1)= 5.756E-05  nbox= 17
     iter. #   325  RMS(g-h-1)= 5.748E-05  nbox=  2
     iter. #   326  RMS(g-h-1)= 5.733E-05  nbox=  3
     iter. #   327  RMS(g-h-1)= 5.787E-05  nbox=  4
     iter. #   328  RMS(g-h-1)= 5.685E-05  nbox=  5
     iter. #   329  RMS(g-h-1)= 5.671E-05  nbox=  6
     iter. #   330  RMS(g-h-1)= 5.642E-05  nbox=  7
     iter. #   331  RMS(g-h-1)= 5.617E-05  nbox=  8
     iter. #   332  RMS(g-h-1)= 5.594E-05  nbox=  9
     iter. #   333  RMS(g-h-1)= 5.566E-05  nbox= 10
     iter. #   334  RMS(g-h-1)= 5.559E-05  nbox= 11
     iter. #   335  RMS(g-h-1)= 5.535E-05  nbox= 12
     iter. #   336  RMS(g-h-1)= 5.516E-05  nbox= 13
     iter. #   337  RMS(g-h-1)= 5.497E-05  nbox= 14
     iter. #   338  RMS(g-h-1)= 5.484E-05  nbox= 15
     iter. #   339  RMS(g-h-1)= 5.468E-05  nbox= 16
     iter. #   340  RMS(g-h-1)= 5.462E-05  nbox= 17
     iter. #   341  RMS(g-h-1)= 5.457E-05  nbox=  2
     iter. #   342  RMS(g-h-1)= 5.445E-05  nbox=  3
     iter. #   343  RMS(g-h-1)= 5.430E-05  nbox=  4
     iter. #   344  RMS(g-h-1)= 5.417E-05  nbox=  5
     iter. #   345  RMS(g-h-1)= 5.403E-05  nbox=  6
     iter. #   346  RMS(g-h-1)= 5.387E-05  nbox=  7
     iter. #   347  RMS(g-h-1)= 5.371E-05  nbox=  8
     iter. #   348  RMS(g-h-1)= 5.354E-05  nbox=  9
     iter. #   349  RMS(g-h-1)= 5.344E-05  nbox= 10
     iter. #   350  RMS(g-h-1)= 5.325E-05  nbox= 11
     iter. #   351  RMS(g-h-1)= 5.307E-05  nbox= 12
     iter. #   352  RMS(g-h-1)= 5.287E-05  nbox= 13
     iter. #   353  RMS(g-h-1)= 5.338E-05  nbox= 14
     iter. #   354  RMS(g-h-1)= 5.251E-05  nbox= 15
     iter. #   355  RMS(g-h-1)= 5.254E-05  nbox= 16
     iter. #   356  RMS(g-h-1)= 5.233E-05  nbox= 17
     iter. #   357  RMS(g-h-1)= 5.229E-05  nbox=  2
     iter. #   358  RMS(g-h-1)= 5.212E-05  nbox=  3
     iter. #   359  RMS(g-h-1)= 5.193E-05  nbox=  4
     iter. #   360  RMS(g-h-1)= 5.172E-05  nbox=  5
     iter. #   361  RMS(g-h-1)= 5.159E-05  nbox=  6
     iter. #   362  RMS(g-h-1)= 5.143E-05  nbox=  7
     iter. #   363  RMS(g-h-1)= 5.121E-05  nbox=  8
     iter. #   364  RMS(g-h-1)= 5.100E-05  nbox=  9
     iter. #   365  RMS(g-h-1)= 5.078E-05  nbox= 10
     iter. #   366  RMS(g-h-1)= 5.057E-05  nbox= 11
     iter. #   367  RMS(g-h-1)= 5.041E-05  nbox= 12
     iter. #   368  RMS(g-h-1)= 5.030E-05  nbox= 13
     iter. #   369  RMS(g-h-1)= 5.017E-05  nbox= 14
     iter. #   370  RMS(g-h-1)= 4.999E-05  nbox= 15
     iter. #   371  RMS(g-h-1)= 4.983E-05  nbox= 16
     iter. #   372  RMS(g-h-1)= 4.964E-05  nbox= 17
     iter. #   373  RMS(g-h-1)= 4.963E-05  nbox=  2
     iter. #   374  RMS(g-h-1)= 4.939E-05  nbox=  3
     iter. #   375  RMS(g-h-1)= 4.920E-05  nbox=  4
     iter. #   376  RMS(g-h-1)= 4.897E-05  nbox=  5
     iter. #   377  RMS(g-h-1)= 4.880E-05  nbox=  6
     iter. #   378  RMS(g-h-1)= 4.867E-05  nbox=  7
     iter. #   379  RMS(g-h-1)= 4.845E-05  nbox=  8
     iter. #   380  RMS(g-h-1)= 4.823E-05  nbox=  9
     iter. #   381  RMS(g-h-1)= 4.802E-05  nbox= 10
     iter. #   382  RMS(g-h-1)= 4.790E-05  nbox= 11
     iter. #   383  RMS(g-h-1)= 4.767E-05  nbox= 12
     iter. #   384  RMS(g-h-1)= 4.785E-05  nbox= 13
     iter. #   385  RMS(g-h-1)= 4.738E-05  nbox= 14
     iter. #   386  RMS(g-h-1)= 4.720E-05  nbox= 15
     iter. #   387  RMS(g-h-1)= 4.703E-05  nbox= 16
     iter. #   388  RMS(g-h-1)= 4.681E-05  nbox= 17
     iter. #   389  RMS(g-h-1)= 4.679E-05  nbox=  2
     iter. #   390  RMS(g-h-1)= 4.659E-05  nbox=  3
     iter. #   391  RMS(g-h-1)= 4.641E-05  nbox=  4
     iter. #   392  RMS(g-h-1)= 4.622E-05  nbox=  5
     iter. #   393  RMS(g-h-1)= 4.608E-05  nbox=  6
     iter. #   394  RMS(g-h-1)= 4.595E-05  nbox=  7
     iter. #   395  RMS(g-h-1)= 4.574E-05  nbox=  8
     iter. #   396  RMS(g-h-1)= 4.552E-05  nbox=  9
     iter. #   397  RMS(g-h-1)= 4.529E-05  nbox= 10
     iter. #   398  RMS(g-h-1)= 4.507E-05  nbox= 11
     iter. #   399  RMS(g-h-1)= 4.483E-05  nbox= 12
     iter. #   400  RMS(g-h-1)= 4.468E-05  nbox= 13
     iter. #   401  RMS(g-h-1)= 4.452E-05  nbox= 14
     iter. #   402  RMS(g-h-1)= 4.427E-05  nbox= 15
     iter. #   403  RMS(g-h-1)= 4.412E-05  nbox= 16
     iter. #   404  RMS(g-h-1)= 4.386E-05  nbox= 17
     iter. #   405  RMS(g-h-1)= 4.412E-05  nbox=  2
     iter. #   406  RMS(g-h-1)= 4.368E-05  nbox=  3
     iter. #   407  RMS(g-h-1)= 4.355E-05  nbox=  4
     iter. #   408  RMS(g-h-1)= 4.341E-05  nbox=  5
     iter. #   409  RMS(g-h-1)= 4.332E-05  nbox=  6
     iter. #   410  RMS(g-h-1)= 4.324E-05  nbox=  7
     iter. #   411  RMS(g-h-1)= 4.321E-05  nbox=  8
     iter. #   412  RMS(g-h-1)= 4.314E-05  nbox=  9
     iter. #   413  RMS(g-h-1)= 4.309E-05  nbox= 10
     iter. #   414  RMS(g-h-1)= 4.304E-05  nbox= 11
     iter. #   415  RMS(g-h-1)= 4.300E-05  nbox= 12
     iter. #   416  RMS(g-h-1)= 4.296E-05  nbox= 13
     iter. #   417  RMS(g-h-1)= 4.292E-05  nbox= 14
     iter. #   418  RMS(g-h-1)= 4.289E-05  nbox= 15
     iter. #   419  RMS(g-h-1)= 4.288E-05  nbox= 16
     iter. #   420  RMS(g-h-1)= 4.283E-05  nbox= 17
     iter. #   421  RMS(g-h-1)= 4.283E-05  nbox=  2
     iter. #   422  RMS(g-h-1)= 4.278E-05  nbox=  3
     iter. #   423  RMS(g-h-1)= 4.274E-05  nbox=  4
     iter. #   424  RMS(g-h-1)= 4.270E-05  nbox=  5
     iter. #   425  RMS(g-h-1)= 4.267E-05  nbox=  6
     iter. #   426  RMS(g-h-1)= 4.264E-05  nbox=  7
     iter. #   427  RMS(g-h-1)= 4.263E-05  nbox=  8
     iter. #   428  RMS(g-h-1)= 4.259E-05  nbox=  9
     iter. #   429  RMS(g-h-1)= 4.255E-05  nbox= 10
     iter. #   430  RMS(g-h-1)= 4.250E-05  nbox= 11
     iter. #   431  RMS(g-h-1)= 4.245E-05  nbox= 12
     iter. #   432  RMS(g-h-1)= 4.240E-05  nbox= 13
     iter. #   433  RMS(g-h-1)= 4.234E-05  nbox= 14
     iter. #   434  RMS(g-h-1)= 4.231E-05  nbox= 15
     iter. #   435  RMS(g-h-1)= 4.227E-05  nbox= 16
     iter. #   436  RMS(g-h-1)= 4.222E-05  nbox= 17
     iter. #   437  RMS(g-h-1)= 4.220E-05  nbox=  2
     iter. #   438  RMS(g-h-1)= 4.215E-05  nbox=  3
     iter. #   439  RMS(g-h-1)= 4.210E-05  nbox=  4
     iter. #   440  RMS(g-h-1)= 4.205E-05  nbox=  5
     iter. #   441  RMS(g-h-1)= 4.201E-05  nbox=  6
     iter. #   442  RMS(g-h-1)= 4.198E-05  nbox=  7
     iter. #   443  RMS(g-h-1)= 4.194E-05  nbox=  8
     iter. #   444  RMS(g-h-1)= 4.188E-05  nbox=  9
     iter. #   445  RMS(g-h-1)= 4.183E-05  nbox= 10
     iter. #   446  RMS(g-h-1)= 4.177E-05  nbox= 11
     iter. #   447  RMS(g-h-1)= 4.172E-05  nbox= 12
     iter. #   448  RMS(g-h-1)= 4.167E-05  nbox= 13
     iter. #   449  RMS(g-h-1)= 4.164E-05  nbox= 14
     iter. #   450  RMS(g-h-1)= 4.160E-05  nbox= 15
     iter. #   451  RMS(g-h-1)= 4.154E-05  nbox= 16
     iter. #   452  RMS(g-h-1)= 4.149E-05  nbox= 17
     iter. #   453  RMS(g-h-1)= 4.148E-05  nbox=  2
     iter. #   454  RMS(g-h-1)= 4.142E-05  nbox=  3
     iter. #   455  RMS(g-h-1)= 4.136E-05  nbox=  4
     iter. #   456  RMS(g-h-1)= 4.131E-05  nbox=  5
     iter. #   457  RMS(g-h-1)= 4.125E-05  nbox=  6
     iter. #   458  RMS(g-h-1)= 4.123E-05  nbox=  7
     iter. #   459  RMS(g-h-1)= 4.118E-05  nbox=  8
     iter. #   460  RMS(g-h-1)= 4.113E-05  nbox=  9
     iter. #   461  RMS(g-h-1)= 4.107E-05  nbox= 10
     iter. #   462  RMS(g-h-1)= 4.102E-05  nbox= 11
     iter. #   463  RMS(g-h-1)= 4.097E-05  nbox= 12
     iter. #   464  RMS(g-h-1)= 4.090E-05  nbox= 13
     iter. #   465  RMS(g-h-1)= 4.085E-05  nbox= 14
     iter. #   466  RMS(g-h-1)= 4.080E-05  nbox= 15
     iter. #   467  RMS(g-h-1)= 4.073E-05  nbox= 16
     iter. #   468  RMS(g-h-1)= 4.066E-05  nbox= 17
     iter. #   469  RMS(g-h-1)= 4.065E-05  nbox=  2
     iter. #   470  RMS(g-h-1)= 4.057E-05  nbox=  3
     iter. #   471  RMS(g-h-1)= 4.052E-05  nbox=  4
     iter. #   472  RMS(g-h-1)= 4.045E-05  nbox=  5
     iter. #   473  RMS(g-h-1)= 4.039E-05  nbox=  6
     iter. #   474  RMS(g-h-1)= 4.033E-05  nbox=  7
     iter. #   475  RMS(g-h-1)= 4.028E-05  nbox=  8
     iter. #   476  RMS(g-h-1)= 4.019E-05  nbox=  9
     iter. #   477  RMS(g-h-1)= 4.011E-05  nbox= 10
     iter. #   478  RMS(g-h-1)= 4.000E-05  nbox= 11
     iter. #   479  RMS(g-h-1)= 3.989E-05  nbox= 12
     iter. #   480  RMS(g-h-1)= 3.983E-05  nbox= 13
     iter. #   481  RMS(g-h-1)= 3.966E-05  nbox= 14
     iter. #   482  RMS(g-h-1)= 3.961E-05  nbox= 15
     iter. #   483  RMS(g-h-1)= 3.943E-05  nbox= 16
     iter. #   484  RMS(g-h-1)= 3.928E-05  nbox= 17
     iter. #   485  RMS(g-h-1)= 3.926E-05  nbox=  2
     iter. #   486  RMS(g-h-1)= 3.906E-05  nbox=  3
     iter. #   487  RMS(g-h-1)= 3.889E-05  nbox=  4
     iter. #   488  RMS(g-h-1)= 3.875E-05  nbox=  5
     iter. #   489  RMS(g-h-1)= 3.861E-05  nbox=  6
     iter. #   490  RMS(g-h-1)= 3.854E-05  nbox=  7
     iter. #   491  RMS(g-h-1)= 3.838E-05  nbox=  8
     iter. #   492  RMS(g-h-1)= 3.822E-05  nbox=  9
     iter. #   493  RMS(g-h-1)= 3.807E-05  nbox= 10
     iter. #   494  RMS(g-h-1)= 3.789E-05  nbox= 11
     iter. #   495  RMS(g-h-1)= 3.773E-05  nbox= 12
     iter. #   496  RMS(g-h-1)= 3.754E-05  nbox= 13
     iter. #   497  RMS(g-h-1)= 3.742E-05  nbox= 14
     iter. #   498  RMS(g-h-1)= 3.726E-05  nbox= 15
     iter. #   499  RMS(g-h-1)= 3.704E-05  nbox= 16
     iter. #   500  RMS(g-h-1)= 3.687E-05  nbox= 17
     iter. #   501  RMS(g-h-1)= 3.683E-05  nbox=  2
     iter. #   502  RMS(g-h-1)= 3.663E-05  nbox=  3
     iter. #   503  RMS(g-h-1)= 3.650E-05  nbox=  4
     iter. #   504  RMS(g-h-1)= 3.629E-05  nbox=  5
     iter. #   505  RMS(g-h-1)= 3.629E-05  nbox=  6
     iter. #   506  RMS(g-h-1)= 3.608E-05  nbox=  7
     iter. #   507  RMS(g-h-1)= 3.593E-05  nbox=  8
     iter. #   508  RMS(g-h-1)= 3.579E-05  nbox=  9
     iter. #   509  RMS(g-h-1)= 3.563E-05  nbox= 10
     iter. #   510  RMS(g-h-1)= 3.558E-05  nbox= 11
     iter. #   511  RMS(g-h-1)= 3.547E-05  nbox= 12
     iter. #   512  RMS(g-h-1)= 3.538E-05  nbox= 13
     iter. #   513  RMS(g-h-1)= 3.528E-05  nbox= 14
     iter. #   514  RMS(g-h-1)= 3.519E-05  nbox= 15
     iter. #   515  RMS(g-h-1)= 3.508E-05  nbox= 16
     iter. #   516  RMS(g-h-1)= 3.498E-05  nbox= 17
     iter. #   517  RMS(g-h-1)= 3.498E-05  nbox=  2
     iter. #   518  RMS(g-h-1)= 3.485E-05  nbox=  3
     iter. #   519  RMS(g-h-1)= 3.474E-05  nbox=  4
     iter. #   520  RMS(g-h-1)= 3.465E-05  nbox=  5
     iter. #   521  RMS(g-h-1)= 3.456E-05  nbox=  6
     iter. #   522  RMS(g-h-1)= 3.453E-05  nbox=  7
     iter. #   523  RMS(g-h-1)= 3.444E-05  nbox=  8
     iter. #   524  RMS(g-h-1)= 3.435E-05  nbox=  9
     iter. #   525  RMS(g-h-1)= 3.428E-05  nbox= 10
     iter. #   526  RMS(g-h-1)= 3.420E-05  nbox= 11
     iter. #   527  RMS(g-h-1)= 3.412E-05  nbox= 12
     iter. #   528  RMS(g-h-1)= 3.404E-05  nbox= 13
     iter. #   529  RMS(g-h-1)= 3.398E-05  nbox= 14
     iter. #   530  RMS(g-h-1)= 3.392E-05  nbox= 15
     iter. #   531  RMS(g-h-1)= 3.384E-05  nbox= 16
     iter. #   532  RMS(g-h-1)= 3.373E-05  nbox= 17
     iter. #   533  RMS(g-h-1)= 3.371E-05  nbox=  2
     iter. #   534  RMS(g-h-1)= 3.359E-05  nbox=  3
     iter. #   535  RMS(g-h-1)= 3.347E-05  nbox=  4
     iter. #   536  RMS(g-h-1)= 3.336E-05  nbox=  5
     iter. #   537  RMS(g-h-1)= 3.326E-05  nbox=  6
     iter. #   538  RMS(g-h-1)= 3.319E-05  nbox=  7
     iter. #   539  RMS(g-h-1)= 3.307E-05  nbox=  8
     iter. #   540  RMS(g-h-1)= 3.293E-05  nbox=  9
     iter. #   541  RMS(g-h-1)= 3.278E-05  nbox= 10
     iter. #   542  RMS(g-h-1)= 3.262E-05  nbox= 11
     iter. #   543  RMS(g-h-1)= 3.247E-05  nbox= 12
     iter. #   544  RMS(g-h-1)= 3.231E-05  nbox= 13
     iter. #   545  RMS(g-h-1)= 3.222E-05  nbox= 14
     iter. #   546  RMS(g-h-1)= 3.206E-05  nbox= 15
     iter. #   547  RMS(g-h-1)= 3.187E-05  nbox= 16
     iter. #   548  RMS(g-h-1)= 3.167E-05  nbox= 17
     iter. #   549  RMS(g-h-1)= 3.161E-05  nbox=  2
     iter. #   550  RMS(g-h-1)= 3.137E-05  nbox=  3
     iter. #   551  RMS(g-h-1)= 3.114E-05  nbox=  4
     iter. #   552  RMS(g-h-1)= 3.091E-05  nbox=  5
     iter. #   553  RMS(g-h-1)= 3.076E-05  nbox=  6
     iter. #   554  RMS(g-h-1)= 3.056E-05  nbox=  7
     iter. #   555  RMS(g-h-1)= 3.033E-05  nbox=  8
     iter. #   556  RMS(g-h-1)= 3.009E-05  nbox=  9
     iter. #   557  RMS(g-h-1)= 2.982E-05  nbox= 10
     iter. #   558  RMS(g-h-1)= 2.956E-05  nbox= 11
     iter. #   559  RMS(g-h-1)= 2.930E-05  nbox= 12
     iter. #   560  RMS(g-h-1)= 2.913E-05  nbox= 13
     iter. #   561  RMS(g-h-1)= 2.896E-05  nbox= 14
     iter. #   562  RMS(g-h-1)= 2.870E-05  nbox= 15
     iter. #   563  RMS(g-h-1)= 2.847E-05  nbox= 16
     iter. #   564  RMS(g-h-1)= 2.824E-05  nbox= 17
     iter. #   565  RMS(g-h-1)= 2.822E-05  nbox=  2
     iter. #   566  RMS(g-h-1)= 2.799E-05  nbox=  3
     iter. #   567  RMS(g-h-1)= 2.781E-05  nbox=  4
     iter. #   568  RMS(g-h-1)= 2.767E-05  nbox=  5
     iter. #   569  RMS(g-h-1)= 2.758E-05  nbox=  6
     iter. #   570  RMS(g-h-1)= 2.745E-05  nbox=  7
     iter. #   571  RMS(g-h-1)= 2.732E-05  nbox=  8
     iter. #   572  RMS(g-h-1)= 2.720E-05  nbox=  9
     iter. #   573  RMS(g-h-1)= 2.707E-05  nbox= 10
     iter. #   574  RMS(g-h-1)= 2.694E-05  nbox= 11
     iter. #   575  RMS(g-h-1)= 2.682E-05  nbox= 12
     iter. #   576  RMS(g-h-1)= 2.670E-05  nbox= 13
     iter. #   577  RMS(g-h-1)= 2.663E-05  nbox= 14
     iter. #   578  RMS(g-h-1)= 2.645E-05  nbox= 15
     iter. #   579  RMS(g-h-1)= 2.634E-05  nbox= 16
     iter. #   580  RMS(g-h-1)= 2.622E-05  nbox= 17
     iter. #   581  RMS(g-h-1)= 2.620E-05  nbox=  2
     iter. #   582  RMS(g-h-1)= 2.608E-05  nbox=  3
     iter. #   583  RMS(g-h-1)= 2.600E-05  nbox=  4
     iter. #   584  RMS(g-h-1)= 2.591E-05  nbox=  5
     iter. #   585  RMS(g-h-1)= 2.586E-05  nbox=  6
     iter. #   586  RMS(g-h-1)= 2.581E-05  nbox=  7
     iter. #   587  RMS(g-h-1)= 2.573E-05  nbox=  8
     iter. #   588  RMS(g-h-1)= 2.567E-05  nbox=  9
     iter. #   589  RMS(g-h-1)= 2.559E-05  nbox= 10
     iter. #   590  RMS(g-h-1)= 2.552E-05  nbox= 11
     iter. #   591  RMS(g-h-1)= 2.544E-05  nbox= 12
     iter. #   592  RMS(g-h-1)= 2.538E-05  nbox= 13
     iter. #   593  RMS(g-h-1)= 2.534E-05  nbox= 14
     iter. #   594  RMS(g-h-1)= 2.527E-05  nbox= 15
     iter. #   595  RMS(g-h-1)= 2.520E-05  nbox= 16
     iter. #   596  RMS(g-h-1)= 2.513E-05  nbox= 17
     iter. #   597  RMS(g-h-1)= 2.511E-05  nbox=  2
     iter. #   598  RMS(g-h-1)= 2.504E-05  nbox=  3
     iter. #   599  RMS(g-h-1)= 2.498E-05  nbox=  4
     iter. #   600  RMS(g-h-1)= 2.494E-05  nbox=  5
     iter. #   601  RMS(g-h-1)= 2.490E-05  nbox=  6
     iter. #   602  RMS(g-h-1)= 2.488E-05  nbox=  7
     iter. #   603  RMS(g-h-1)= 2.483E-05  nbox=  8
     iter. #   604  RMS(g-h-1)= 2.479E-05  nbox=  9
     iter. #   605  RMS(g-h-1)= 2.474E-05  nbox= 10
     iter. #   606  RMS(g-h-1)= 2.470E-05  nbox= 11
     iter. #   607  RMS(g-h-1)= 2.465E-05  nbox= 12
     iter. #   608  RMS(g-h-1)= 2.461E-05  nbox= 13
     iter. #   609  RMS(g-h-1)= 2.458E-05  nbox= 14
     iter. #   610  RMS(g-h-1)= 2.455E-05  nbox= 15
     iter. #   611  RMS(g-h-1)= 2.451E-05  nbox= 16
     iter. #   612  RMS(g-h-1)= 2.448E-05  nbox= 17
     iter. #   613  RMS(g-h-1)= 2.447E-05  nbox=  2
     iter. #   614  RMS(g-h-1)= 2.442E-05  nbox=  3
     iter. #   615  RMS(g-h-1)= 2.439E-05  nbox=  4
     iter. #   616  RMS(g-h-1)= 2.435E-05  nbox=  5
     iter. #   617  RMS(g-h-1)= 2.432E-05  nbox=  6
     iter. #   618  RMS(g-h-1)= 2.429E-05  nbox=  7
     iter. #   619  RMS(g-h-1)= 2.426E-05  nbox=  8
     iter. #   620  RMS(g-h-1)= 2.423E-05  nbox=  9
     iter. #   621  RMS(g-h-1)= 2.418E-05  nbox= 10
     iter. #   622  RMS(g-h-1)= 2.415E-05  nbox= 11
     iter. #   623  RMS(g-h-1)= 2.411E-05  nbox= 12
     iter. #   624  RMS(g-h-1)= 2.407E-05  nbox= 13
     iter. #   625  RMS(g-h-1)= 2.404E-05  nbox= 14
     iter. #   626  RMS(g-h-1)= 2.402E-05  nbox= 15
     iter. #   627  RMS(g-h-1)= 2.399E-05  nbox= 16
     iter. #   628  RMS(g-h-1)= 2.396E-05  nbox= 17
     iter. #   629  RMS(g-h-1)= 2.395E-05  nbox=  2
     iter. #   630  RMS(g-h-1)= 2.391E-05  nbox=  3
     iter. #   631  RMS(g-h-1)= 2.387E-05  nbox=  4
     iter. #   632  RMS(g-h-1)= 2.384E-05  nbox=  5
     iter. #   633  RMS(g-h-1)= 2.381E-05  nbox=  6
     iter. #   634  RMS(g-h-1)= 2.380E-05  nbox=  7
     iter. #   635  RMS(g-h-1)= 2.376E-05  nbox=  8
     iter. #   636  RMS(g-h-1)= 2.372E-05  nbox=  9
     iter. #   637  RMS(g-h-1)= 2.369E-05  nbox= 10
     iter. #   638  RMS(g-h-1)= 2.365E-05  nbox= 11
     iter. #   639  RMS(g-h-1)= 2.361E-05  nbox= 12
     iter. #   640  RMS(g-h-1)= 2.357E-05  nbox= 13
     iter. #   641  RMS(g-h-1)= 2.354E-05  nbox= 14
     iter. #   642  RMS(g-h-1)= 2.352E-05  nbox= 15
     iter. #   643  RMS(g-h-1)= 2.348E-05  nbox= 16
     iter. #   644  RMS(g-h-1)= 2.345E-05  nbox= 17
     iter. #   645  RMS(g-h-1)= 2.344E-05  nbox=  2
     iter. #   646  RMS(g-h-1)= 2.339E-05  nbox=  3
     iter. #   647  RMS(g-h-1)= 2.335E-05  nbox=  4
     iter. #   648  RMS(g-h-1)= 2.331E-05  nbox=  5
     iter. #   649  RMS(g-h-1)= 2.327E-05  nbox=  6
     iter. #   650  RMS(g-h-1)= 2.326E-05  nbox=  7
     iter. #   651  RMS(g-h-1)= 2.321E-05  nbox=  8
     iter. #   652  RMS(g-h-1)= 2.316E-05  nbox=  9
     iter. #   653  RMS(g-h-1)= 2.310E-05  nbox= 10
     iter. #   654  RMS(g-h-1)= 2.303E-05  nbox= 11
     iter. #   655  RMS(g-h-1)= 2.296E-05  nbox= 12
     iter. #   656  RMS(g-h-1)= 2.290E-05  nbox= 13
     iter. #   657  RMS(g-h-1)= 2.286E-05  nbox= 14
     iter. #   658  RMS(g-h-1)= 2.279E-05  nbox= 15
     iter. #   659  RMS(g-h-1)= 2.271E-05  nbox= 16
     iter. #   660  RMS(g-h-1)= 2.265E-05  nbox= 17
     iter. #   661  RMS(g-h-1)= 2.264E-05  nbox=  2
     iter. #   662  RMS(g-h-1)= 2.255E-05  nbox=  3
     iter. #   663  RMS(g-h-1)= 2.248E-05  nbox=  4
     iter. #   664  RMS(g-h-1)= 2.242E-05  nbox=  5
     iter. #   665  RMS(g-h-1)= 2.236E-05  nbox=  6
     iter. #   666  RMS(g-h-1)= 2.230E-05  nbox=  7
     iter. #   667  RMS(g-h-1)= 2.221E-05  nbox=  8
     iter. #   668  RMS(g-h-1)= 2.213E-05  nbox=  9
     iter. #   669  RMS(g-h-1)= 2.203E-05  nbox= 10
     iter. #   670  RMS(g-h-1)= 2.192E-05  nbox= 11
     iter. #   671  RMS(g-h-1)= 2.181E-05  nbox= 12
     iter. #   672  RMS(g-h-1)= 2.171E-05  nbox= 13
     iter. #   673  RMS(g-h-1)= 2.163E-05  nbox= 14
     iter. #   674  RMS(g-h-1)= 2.150E-05  nbox= 15
     iter. #   675  RMS(g-h-1)= 2.136E-05  nbox= 16
     iter. #   676  RMS(g-h-1)= 2.123E-05  nbox= 17
     iter. #   677  RMS(g-h-1)= 2.120E-05  nbox=  2
     iter. #   678  RMS(g-h-1)= 2.103E-05  nbox=  3
     iter. #   679  RMS(g-h-1)= 2.091E-05  nbox=  4
     iter. #   680  RMS(g-h-1)= 2.082E-05  nbox=  5
     iter. #   681  RMS(g-h-1)= 2.070E-05  nbox=  6
     iter. #   682  RMS(g-h-1)= 2.058E-05  nbox=  7
     iter. #   683  RMS(g-h-1)= 2.044E-05  nbox=  8
     iter. #   684  RMS(g-h-1)= 2.030E-05  nbox=  9
     iter. #   685  RMS(g-h-1)= 2.013E-05  nbox= 10
     iter. #   686  RMS(g-h-1)= 1.997E-05  nbox= 11
     iter. #   687  RMS(g-h-1)= 1.983E-05  nbox= 12
     iter. #   688  RMS(g-h-1)= 1.973E-05  nbox= 13
     iter. #   689  RMS(g-h-1)= 1.954E-05  nbox= 14
     iter. #   690  RMS(g-h-1)= 1.935E-05  nbox= 15
     iter. #   691  RMS(g-h-1)= 1.918E-05  nbox= 16
     iter. #   692  RMS(g-h-1)= 1.900E-05  nbox= 17
     iter. #   693  RMS(g-h-1)= 1.897E-05  nbox=  2
     iter. #   694  RMS(g-h-1)= 1.878E-05  nbox=  3
     iter. #   695  RMS(g-h-1)= 1.861E-05  nbox=  4
     iter. #   696  RMS(g-h-1)= 1.855E-05  nbox=  5
     iter. #   697  RMS(g-h-1)= 1.836E-05  nbox=  6
     iter. #   698  RMS(g-h-1)= 1.821E-05  nbox=  7
     iter. #   699  RMS(g-h-1)= 1.801E-05  nbox=  8
     iter. #   700  RMS(g-h-1)= 1.783E-05  nbox=  9
     iter. #   701  RMS(g-h-1)= 1.766E-05  nbox= 10
     iter. #   702  RMS(g-h-1)= 1.749E-05  nbox= 11
     iter. #   703  RMS(g-h-1)= 1.739E-05  nbox= 12
     iter. #   704  RMS(g-h-1)= 1.726E-05  nbox= 13
     iter. #   705  RMS(g-h-1)= 1.708E-05  nbox= 14
     iter. #   706  RMS(g-h-1)= 1.691E-05  nbox= 15
     iter. #   707  RMS(g-h-1)= 1.673E-05  nbox= 16
     iter. #   708  RMS(g-h-1)= 1.655E-05  nbox= 17
     iter. #   709  RMS(g-h-1)= 1.649E-05  nbox=  2
     iter. #   710  RMS(g-h-1)= 1.628E-05  nbox=  3
     iter. #   711  RMS(g-h-1)= 1.605E-05  nbox=  4
     iter. #   712  RMS(g-h-1)= 1.592E-05  nbox=  5
     iter. #   713  RMS(g-h-1)= 1.571E-05  nbox=  6
     iter. #   714  RMS(g-h-1)= 1.555E-05  nbox=  7
     iter. #   715  RMS(g-h-1)= 1.526E-05  nbox=  8
     iter. #   716  RMS(g-h-1)= 1.504E-05  nbox=  9
     iter. #   717  RMS(g-h-1)= 1.477E-05  nbox= 10
     iter. #   718  RMS(g-h-1)= 1.452E-05  nbox= 11
     iter. #   719  RMS(g-h-1)= 1.429E-05  nbox= 12
     iter. #   720  RMS(g-h-1)= 1.411E-05  nbox= 13
     iter. #   721  RMS(g-h-1)= 1.396E-05  nbox= 14
     iter. #   722  RMS(g-h-1)= 1.378E-05  nbox= 15
     iter. #   723  RMS(g-h-1)= 1.353E-05  nbox= 16
     iter. #   724  RMS(g-h-1)= 1.329E-05  nbox= 17
     iter. #   725  RMS(g-h-1)= 1.324E-05  nbox=  2
     iter. #   726  RMS(g-h-1)= 1.301E-05  nbox=  3
     iter. #   727  RMS(g-h-1)= 1.275E-05  nbox=  4
     iter. #   728  RMS(g-h-1)= 1.264E-05  nbox=  5
     iter. #   729  RMS(g-h-1)= 1.245E-05  nbox=  6
     iter. #   730  RMS(g-h-1)= 1.228E-05  nbox=  7
     iter. #   731  RMS(g-h-1)= 1.208E-05  nbox=  8
     iter. #   732  RMS(g-h-1)= 1.187E-05  nbox=  9
     iter. #   733  RMS(g-h-1)= 1.171E-05  nbox= 10
     iter. #   734  RMS(g-h-1)= 1.150E-05  nbox= 11
     iter. #   735  RMS(g-h-1)= 1.149E-05  nbox= 12
     iter. #   736  RMS(g-h-1)= 1.125E-05  nbox= 13
     iter. #   737  RMS(g-h-1)= 1.108E-05  nbox= 14
     iter. #   738  RMS(g-h-1)= 1.090E-05  nbox= 15
     iter. #   739  RMS(g-h-1)= 1.074E-05  nbox= 16
     iter. #   740  RMS(g-h-1)= 1.055E-05  nbox= 17
     iter. #   741  RMS(g-h-1)= 1.050E-05  nbox=  2
     iter. #   742  RMS(g-h-1)= 1.032E-05  nbox=  3
     iter. #   743  RMS(g-h-1)= 1.013E-05  nbox=  4
     iter. #   744  RMS(g-h-1)= 9.987E-06  nbox=  5
     iter. #   745  RMS(g-h-1)= 9.849E-06  nbox=  6
     iter. #   746  RMS(g-h-1)= 9.723E-06  nbox=  7
     iter. #   747  RMS(g-h-1)= 9.551E-06  nbox=  8
     iter. #   748  RMS(g-h-1)= 9.389E-06  nbox=  9
     iter. #   749  RMS(g-h-1)= 9.226E-06  nbox= 10
     iter. #   750  RMS(g-h-1)= 9.093E-06  nbox= 11
     iter. #   751  RMS(g-h-1)= 8.974E-06  nbox= 12
     iter. #   752  RMS(g-h-1)= 8.891E-06  nbox= 13
     iter. #   753  RMS(g-h-1)= 8.795E-06  nbox= 14
     iter. #   754  RMS(g-h-1)= 8.680E-06  nbox= 15
     iter. #   755  RMS(g-h-1)= 8.559E-06  nbox= 16
     iter. #   756  RMS(g-h-1)= 8.422E-06  nbox= 17
     iter. #   757  RMS(g-h-1)= 8.398E-06  nbox=  2
     iter. #   758  RMS(g-h-1)= 8.238E-06  nbox=  3
     iter. #   759  RMS(g-h-1)= 8.096E-06  nbox=  4
     iter. #   760  RMS(g-h-1)= 7.937E-06  nbox=  5
     iter. #   761  RMS(g-h-1)= 7.937E-06  nbox=  6
     iter. #   762  RMS(g-h-1)= 7.703E-06  nbox=  7
     iter. #   763  RMS(g-h-1)= 7.573E-06  nbox=  8
     iter. #   764  RMS(g-h-1)= 7.423E-06  nbox=  9
     iter. #   765  RMS(g-h-1)= 7.299E-06  nbox= 10
     iter. #   766  RMS(g-h-1)= 7.181E-06  nbox= 11
     iter. #   767  RMS(g-h-1)= 7.092E-06  nbox= 12
     iter. #   768  RMS(g-h-1)= 7.019E-06  nbox= 13
     iter. #   769  RMS(g-h-1)= 6.971E-06  nbox= 14
     iter. #   770  RMS(g-h-1)= 6.883E-06  nbox= 15
     iter. #   771  RMS(g-h-1)= 6.804E-06  nbox= 16
     iter. #   772  RMS(g-h-1)= 6.729E-06  nbox= 17
     iter. #   773  RMS(g-h-1)= 6.712E-06  nbox=  2
     iter. #   774  RMS(g-h-1)= 6.625E-06  nbox=  3
     iter. #   775  RMS(g-h-1)= 6.552E-06  nbox=  4
     iter. #   776  RMS(g-h-1)= 6.470E-06  nbox=  5
     iter. #   777  RMS(g-h-1)= 6.388E-06  nbox=  6
     iter. #   778  RMS(g-h-1)= 6.316E-06  nbox=  7
     iter. #   779  RMS(g-h-1)= 6.272E-06  nbox=  8

     End of Laue-RISM calculation


     convergence has been achieved in   779 iterations


     solvent charge   -0.00238, renormalised to    0.00000

     Total number of solvent (in expand-cell)
     H2O           97.478552
     K+             1.610844
     OH-            1.611846

     Total charge of solvent (in expand-cell)
     H2O           -0.000144 e
     K+             1.610844 e
     OH-           -1.613079 e
     Total         -0.002379 e

     Chemical potential of solvation (in expand-cell)
     H2O        GaussFluct   0.135173E+01 kcal/mol
     K+         GaussFluct   0.178563E+01 kcal/mol
     OH-        GaussFluct  -0.114541E+01 kcal/mol
     Total      GaussFluct   0.199195E+01 kcal/mol

     Starting wfc are  332 randomized atomic wfcs
     Checking if some PAW data can be deallocated... 
       node    0, deallocated PAW data for type:  2
       node    0, deallocated PAW data for type:  3
       node    1, deallocated PAW data for type:  2
       node    1, deallocated PAW data for type:  3
       node    2, deallocated PAW data for type:  2
       node    2, deallocated PAW data for type:  3
       node    3, deallocated PAW data for type:  2
       node    3, deallocated PAW data for type:  3
       node    4, deallocated PAW data for type:  2
       node    4, deallocated PAW data for type:  3
       node    5, deallocated PAW data for type:  2
       node    5, deallocated PAW data for type:  3
       node    6, deallocated PAW data for type:  2
       node    6, deallocated PAW data for type:  3
       node    7, deallocated PAW data for type:  2
       node    7, deallocated PAW data for type:  3
       node    8, deallocated PAW data for type:  2
       node    8, deallocated PAW data for type:  3
       node    9, deallocated PAW data for type:  2
       node    9, deallocated PAW data for type:  3
       node   10, deallocated PAW data for type:  2
       node   10, deallocated PAW data for type:  3
       node   11, deallocated PAW data for type:  2
       node   11, deallocated PAW data for type:  3
       node   12, deallocated PAW data for type:  2
       node   12, deallocated PAW data for type:  3
       node   13, deallocated PAW data for type:  2
       node   13, deallocated PAW data for type:  3
       node   14, deallocated PAW data for type:  2
       node   14, deallocated PAW data for type:  3
       node   15, deallocated PAW data for type:  2
       node   15, deallocated PAW data for type:  3
       node   16, deallocated PAW data for type:  2
       node   16, deallocated PAW data for type:  3
       node   17, deallocated PAW data for type:  2
       node   17, deallocated PAW data for type:  3
       node   18, deallocated PAW data for type:  2
       node   18, deallocated PAW data for type:  3
       node   19, deallocated PAW data for type:  2
       node   19, deallocated PAW data for type:  3
       node   20, deallocated PAW data for type:  2
       node   20, deallocated PAW data for type:  3
       node   21, deallocated PAW data for type:  2
       node   21, deallocated PAW data for type:  3
       node   22, deallocated PAW data for type:  2
       node   22, deallocated PAW data for type:  3
       node   23, deallocated PAW data for type:  2
       node   23, deallocated PAW data for type:  3
       node   24, deallocated PAW data for type:  2
       node   24, deallocated PAW data for type:  3
       node   25, deallocated PAW data for type:  2
       node   25, deallocated PAW data for type:  3
       node   26, deallocated PAW data for type:  2
       node   26, deallocated PAW data for type:  3
       node   27, deallocated PAW data for type:  2
       node   27, deallocated PAW data for type:  3
       node   28, deallocated PAW data for type:  2
       node   28, deallocated PAW data for type:  3
       node   29, deallocated PAW data for type:  2
       node   29, deallocated PAW data for type:  3
       node   30, deallocated PAW data for type:  2
       node   30, deallocated PAW data for type:  3
       node   31, deallocated PAW data for type:  2
       node   31, deallocated PAW data for type:  3
       node   32, deallocated PAW data for type:  2
       node   32, deallocated PAW data for type:  3
       node   33, deallocated PAW data for type:  2
       node   33, deallocated PAW data for type:  3
       node   34, deallocated PAW data for type:  2
       node   34, deallocated PAW data for type:  3
       node   35, deallocated PAW data for type:  2
       node   35, deallocated PAW data for type:  3
       node   36, deallocated PAW data for type:  2
       node   36, deallocated PAW data for type:  3
       node   37, deallocated PAW data for type:  2
       node   37, deallocated PAW data for type:  3
       node   38, deallocated PAW data for type:  2
       node   38, deallocated PAW data for type:  3
       node   39, deallocated PAW data for type:  2
       node   39, deallocated PAW data for type:  3
       node   40, deallocated PAW data for type:  2
       node   40, deallocated PAW data for type:  3
       node   41, deallocated PAW data for type:  2
       node   41, deallocated PAW data for type:  3
       node   42, deallocated PAW data for type:  2
       node   42, deallocated PAW data for type:  3
       node   43, deallocated PAW data for type:  2
       node   43, deallocated PAW data for type:  3
       node   44, deallocated PAW data for type:  2
       node   44, deallocated PAW data for type:  3
       node   45, deallocated PAW data for type:  2
       node   45, deallocated PAW data for type:  3
       node   46, deallocated PAW data for type:  2
       node   46, deallocated PAW data for type:  3
       node   47, deallocated PAW data for type:  2
       node   47, deallocated PAW data for type:  3
       node   48, deallocated PAW data for type:  2
       node   48, deallocated PAW data for type:  3
       node   49, deallocated PAW data for type:  2
       node   49, deallocated PAW data for type:  3
       node   50, deallocated PAW data for type:  2
       node   50, deallocated PAW data for type:  3
       node   51, deallocated PAW data for type:  2
       node   51, deallocated PAW data for type:  3
       node   52, deallocated PAW data for type:  2
       node   52, deallocated PAW data for type:  3
       node   53, deallocated PAW data for type:  2
       node   53, deallocated PAW data for type:  3
       node   54, deallocated PAW data for type:  2
       node   54, deallocated PAW data for type:  3
       node   55, deallocated PAW data for type:  2
       node   55, deallocated PAW data for type:  3
       node   56, deallocated PAW data for type:  2
       node   56, deallocated PAW data for type:  3
       node   57, deallocated PAW data for type:  2
[...]
     atom   19 type  1   force =     0.00143710   -0.04942533   61.63595713
     atom   20 type  1   force =    -0.21120251   -0.12110161   65.56587554
     atom   21 type  1   force =     0.20964906   -0.12195459   65.56204973
     atom   22 type  1   force =     0.01621040   -0.00952068   62.69928267
     atom   23 type  1   force =    -0.00151181    0.24299856   65.56395897
     atom   24 type  1   force =    -0.01480761   -0.00835461   62.69703667
     atom   25 type  1   force =     0.04292113    0.02396883   61.63569987
     atom   26 type  1   force =    -0.04262444    0.02545399   61.63617485
     atom   27 type  1   force =    -0.00030584    0.01792788   62.69816062
     atom   28 type  1   force =     0.00312641   -0.00002866  203.68840933
     atom   29 type  1   force =    -0.59741185   -0.74796527  202.93618738
     atom   30 type  1   force =     0.59507154   -0.75915035  202.92825443
     atom   31 type  1   force =    -0.94219232   -0.13962752  202.94006035
     atom   32 type  1   force =    -0.03353990   -0.00000379  203.56282245
     atom   33 type  1   force =     0.95925447   -0.13961255  202.92427186
     atom   34 type  1   force =    -0.35559521    0.88757676  202.93614886
     atom   35 type  1   force =     0.35328098    0.89877703  202.92827922
     atom   36 type  1   force =     0.00316790    0.00004286  204.43256254
     atom   37 type  2   force =     0.10198963    0.00001413   93.27925971
     atom   38 type  3   force =    -0.08691505   -0.00002409  164.32228668
     The local contribution  to forces
     atom    1 type  1   force =    -0.00003923   -0.00003341  217.60713360
     atom    2 type  1   force =     0.02318598   -0.02508125  217.76106464
     atom    3 type  1   force =    -0.02314738   -0.02523130  217.76108541
     atom    4 type  1   force =    -0.01008651    0.03266859  217.76112559
     atom    5 type  1   force =    -0.00018473    0.00000134  217.72428857
     atom    6 type  1   force =     0.01026386    0.03258349  217.76106693
     atom    7 type  1   force =    -0.03338814   -0.00751653  217.76112680
     atom    8 type  1   force =     0.03329253   -0.00742887  217.76104910
     atom    9 type  1   force =     0.00007887    0.00002789  217.84869570
     atom   10 type  1   force =     0.02243860    0.01294037   77.50377279
     atom   11 type  1   force =     0.00013068   -0.16357705   77.20037302
     atom   12 type  1   force =    -0.02256221    0.01309757   77.50441889
     atom   13 type  1   force =    -0.14157122    0.08181879   77.20017125
     atom   14 type  1   force =     0.14180161    0.08180293   77.20058426
     atom   15 type  1   force =    -0.00025891    0.09684224   77.81440866
     atom   16 type  1   force =     0.00007609   -0.02601616   77.50405746
     atom   17 type  1   force =     0.08382520   -0.04858278   77.81439712
     atom   18 type  1   force =    -0.08390006   -0.04832499   77.81430714
     atom   19 type  1   force =    -0.00134679    0.04466282  -61.66058104
     atom   20 type  1   force =     0.22462689    0.12877299  -65.56892623
     atom   21 type  1   force =    -0.22299580    0.12973918  -65.56484096
     atom   22 type  1   force =    -0.02423045    0.01417532  -62.72780643
     atom   23 type  1   force =     0.00164863   -0.25845537  -65.56688042
     atom   24 type  1   force =     0.02261781    0.01284193  -62.72561583
     atom   25 type  1   force =    -0.03880888   -0.02164664  -61.66036648
     atom   26 type  1   force =     0.03848951   -0.02301437  -61.66075250
     atom   27 type  1   force =     0.00034578   -0.02706892  -62.72671293
     atom   28 type  1   force =    -0.00310470    0.00002927 -203.71949971
     atom   29 type  1   force =     0.57885046    0.71783337 -203.01656262
     atom   30 type  1   force =    -0.57633101    0.72784824 -203.00947494
     atom   31 type  1   force =     0.90736093    0.13881279 -203.02001298
     atom   32 type  1   force =     0.03177145    0.00000466 -203.59086642
     atom   33 type  1   force =    -0.92221625    0.13883795 -203.00591994
     atom   34 type  1   force =     0.33842896   -0.85664051 -203.01652070
     atom   35 type  1   force =    -0.33590043   -0.86669002 -203.00950100
     atom   36 type  1   force =    -0.00312681   -0.00004391 -204.46464433
     atom   37 type  2   force =    -0.09592570   -0.00001181  -94.15962414
     atom   38 type  3   force =     0.06179245    0.00001846 -161.56922202
     The core correction contribution to forces
     atom    1 type  1   force =     0.00000376   -0.00000009    0.01936605
     atom    2 type  1   force =    -0.00022595    0.00004859    0.01940601
     atom    3 type  1   force =     0.00022317    0.00003619    0.01940560
     atom    4 type  1   force =    -0.00006939   -0.00021445    0.01940806
     atom    5 type  1   force =    -0.00001088   -0.00000006    0.01895026
     atom    6 type  1   force =     0.00008177   -0.00021688    0.01940341
     atom    7 type  1   force =     0.00014501    0.00016926    0.01940785
     atom    8 type  1   force =    -0.00015291    0.00017739    0.01940360
     atom    9 type  1   force =     0.00000963    0.00000015    0.01978433
     atom   10 type  1   force =     0.00025007    0.00014395    0.00010871
     atom   11 type  1   force =    -0.00000901   -0.00063789   -0.00036624
     atom   12 type  1   force =    -0.00024145    0.00014000    0.00009394
     atom   13 type  1   force =    -0.00055195    0.00031353   -0.00036987
     atom   14 type  1   force =     0.00055285    0.00032441   -0.00036247
     atom   15 type  1   force =     0.00000020    0.00028207    0.00066527
     atom   16 type  1   force =     0.00000095   -0.00028384    0.00010142
     atom   17 type  1   force =     0.00024408   -0.00014093    0.00066745
     atom   18 type  1   force =    -0.00024461   -0.00014130    0.00066325
     atom   19 type  1   force =    -0.00001283   -0.00034865   -0.00017895
     atom   20 type  1   force =     0.00158851    0.00091349    0.00099565
     atom   21 type  1   force =    -0.00156293    0.00090590    0.00094167
     atom   22 type  1   force =     0.00008036   -0.00004216    0.00047414
     atom   23 type  1   force =     0.00000612   -0.00181931    0.00096885
     atom   24 type  1   force =    -0.00008982   -0.00005579    0.00048478
     atom   25 type  1   force =     0.00029680    0.00017872   -0.00017934
     atom   26 type  1   force =    -0.00030701    0.00016981   -0.00017858
     atom   27 type  1   force =     0.00000716    0.00009822    0.00047943
     atom   28 type  1   force =    -0.00000281    0.00000000   -0.01963617
     atom   29 type  1   force =    -0.00087969   -0.00167984   -0.02007875
     atom   30 type  1   force =     0.00087992   -0.00171105   -0.02008085
     atom   31 type  1   force =    -0.00188759    0.00008333   -0.02007232
     atom   32 type  1   force =     0.00031776   -0.00000012    0.02503763
     atom   33 type  1   force =     0.00192895    0.00008808   -0.02008735
     atom   34 type  1   force =    -0.00102916    0.00160097   -0.02007333
     atom   35 type  1   force =     0.00102716    0.00161838   -0.02008638
     atom   36 type  1   force =    -0.00000578   -0.00000008   -0.02027490
     atom   37 type  2   force =     0.00011992   -0.00000002   -0.01714863
     atom   38 type  3   force =    -0.00021321   -0.00000014    0.02244597
     The Hubbard contrib.    to forces
     atom    1 type  1   force =     0.00000000    0.00000000    0.00000000
     atom    2 type  1   force =     0.00000000    0.00000000    0.00000000
     atom    3 type  1   force =     0.00000000    0.00000000    0.00000000
     atom    4 type  1   force =     0.00000000    0.00000000    0.00000000
     atom    5 type  1   force =     0.00000000    0.00000000    0.00000000
     atom    6 type  1   force =     0.00000000    0.00000000    0.00000000
     atom    7 type  1   force =     0.00000000    0.00000000    0.00000000
     atom    8 type  1   force =     0.00000000    0.00000000    0.00000000
     atom    9 type  1   force =     0.00000000    0.00000000    0.00000000
     atom   10 type  1   force =     0.00000000    0.00000000    0.00000000
     atom   11 type  1   force =     0.00000000    0.00000000    0.00000000
     atom   12 type  1   force =     0.00000000    0.00000000    0.00000000
     atom   13 type  1   force =     0.00000000    0.00000000    0.00000000
     atom   14 type  1   force =     0.00000000    0.00000000    0.00000000
     atom   15 type  1   force =     0.00000000    0.00000000    0.00000000
     atom   16 type  1   force =     0.00000000    0.00000000    0.00000000
     atom   17 type  1   force =     0.00000000    0.00000000    0.00000000
     atom   18 type  1   force =     0.00000000    0.00000000    0.00000000
     atom   19 type  1   force =     0.00000000    0.00000000    0.00000000
     atom   20 type  1   force =     0.00000000    0.00000000    0.00000000
     atom   21 type  1   force =     0.00000000    0.00000000    0.00000000
     atom   22 type  1   force =     0.00000000    0.00000000    0.00000000
     atom   23 type  1   force =     0.00000000    0.00000000    0.00000000
     atom   24 type  1   force =     0.00000000    0.00000000    0.00000000
     atom   25 type  1   force =     0.00000000    0.00000000    0.00000000
     atom   26 type  1   force =     0.00000000    0.00000000    0.00000000
     atom   27 type  1   force =     0.00000000    0.00000000    0.00000000
     atom   28 type  1   force =     0.00000000    0.00000000    0.00000000
     atom   29 type  1   force =     0.00000000    0.00000000    0.00000000
     atom   30 type  1   force =     0.00000000    0.00000000    0.00000000
     atom   31 type  1   force =     0.00000000    0.00000000    0.00000000
     atom   32 type  1   force =     0.00000000    0.00000000    0.00000000
     atom   33 type  1   force =     0.00000000    0.00000000    0.00000000
     atom   34 type  1   force =     0.00000000    0.00000000    0.00000000
     atom   35 type  1   force =     0.00000000    0.00000000    0.00000000
     atom   36 type  1   force =     0.00000000    0.00000000    0.00000000
     atom   37 type  2   force =     0.00000000    0.00000000    0.00000000
     atom   38 type  3   force =     0.00000000    0.00000000    0.00000000
     The SCF correction term to forces
     atom    1 type  1   force =     0.00000000    0.00000000    0.00000000
     atom    2 type  1   force =     0.00000000    0.00000000    0.00000000
     atom    3 type  1   force =     0.00000000    0.00000000    0.00000000
     atom    4 type  1   force =     0.00000000    0.00000000    0.00000000
     atom    5 type  1   force =     0.00000000    0.00000000    0.00000000
     atom    6 type  1   force =     0.00000000    0.00000000    0.00000000
     atom    7 type  1   force =     0.00000000    0.00000000    0.00000000
     atom    8 type  1   force =     0.00000000    0.00000000    0.00000000
     atom    9 type  1   force =     0.00000000    0.00000000    0.00000000
     atom   10 type  1   force =     0.00000023    0.00000005   -0.00000392
     atom   11 type  1   force =    -0.00000004   -0.00000008   -0.00000402
     atom   12 type  1   force =    -0.00000019    0.00000002   -0.00000395
     atom   13 type  1   force =     0.00000000   -0.00000017   -0.00000403
     atom   14 type  1   force =    -0.00000004   -0.00000015   -0.00000402
     atom   15 type  1   force =     0.00000003    0.00000019   -0.00000386
     atom   16 type  1   force =    -0.00000002    0.00000000   -0.00000395
     atom   17 type  1   force =     0.00000031    0.00000010   -0.00000388
     atom   18 type  1   force =    -0.00000030    0.00000006   -0.00000391
     atom   19 type  1   force =     0.00000003    0.00000003   -0.00000504
     atom   20 type  1   force =     0.00000036   -0.00000002   -0.00000493
     atom   21 type  1   force =    -0.00000039   -0.00000002   -0.00000493
     atom   22 type  1   force =     0.00000000    0.00000001   -0.00000502
     atom   23 type  1   force =    -0.00000002   -0.00000040   -0.00000491
     atom   24 type  1   force =     0.00000002    0.00000004   -0.00000503
     atom   25 type  1   force =    -0.00000021    0.00000006   -0.00000503
     atom   26 type  1   force =     0.00000023    0.00000009   -0.00000506
     atom   27 type  1   force =    -0.00000002    0.00000020   -0.00000505
     atom   28 type  1   force =    -0.00000004    0.00000003   -0.00000264
     atom   29 type  1   force =     0.00000003    0.00000017   -0.00000316
     atom   30 type  1   force =     0.00000001    0.00000011   -0.00000307
     atom   31 type  1   force =     0.00000010   -0.00000016   -0.00000298
     atom   32 type  1   force =    -0.00000001   -0.00000011   -0.00000317
     atom   33 type  1   force =    -0.00000008   -0.00000019   -0.00000293
     atom   34 type  1   force =     0.00000007    0.00000005   -0.00000291
     atom   35 type  1   force =    -0.00000011    0.00000002   -0.00000296
     atom   36 type  1   force =     0.00000005    0.00000009   -0.00000329
     atom   37 type  2   force =     0.00000000    0.00000001   -0.00000016
     atom   38 type  3   force =     0.00000001    0.00000003   -0.00000095

     3D-RISM Solvation contribution to forces:
     atom    1 type  1   force =    -0.00000031    0.00000000    0.00000699
     atom    2 type  1   force =     0.00001202    0.00002330    0.00003088
     atom    3 type  1   force =    -0.00001170    0.00002379    0.00003152
     atom    4 type  1   force =     0.00002603   -0.00000148    0.00003063
     atom    5 type  1   force =     0.00000060    0.00000002    0.00008318
     atom    6 type  1   force =    -0.00002661   -0.00000150    0.00003185
     atom    7 type  1   force =     0.00001460   -0.00002179    0.00003095
     atom    8 type  1   force =    -0.00001432   -0.00002231    0.00003153
     atom    9 type  1   force =    -0.00000028   -0.00000002    0.00000187
     atom   10 type  1   force =     0.00013934    0.00008019    0.00003683
     atom   11 type  1   force =     0.00000328    0.00019949    0.00030770
     atom   12 type  1   force =    -0.00014249    0.00008260    0.00004348
     atom   13 type  1   force =     0.00017465   -0.00009892    0.00030402
     atom   14 type  1   force =    -0.00017081   -0.00010050    0.00031134
     atom   15 type  1   force =    -0.00000376   -0.00005363   -0.00004876
     atom   16 type  1   force =     0.00000052   -0.00016273    0.00004017
     atom   17 type  1   force =    -0.00004668    0.00002476   -0.00004829
     atom   18 type  1   force =     0.00004621    0.00002883   -0.00004918
     atom   19 type  1   force =    -0.00002729    0.00027139   -0.00044502
     atom   20 type  1   force =     0.00103660    0.00058643    0.00200933
     atom   21 type  1   force =    -0.00100670    0.00059312    0.00206237
     atom   22 type  1   force =     0.00116190   -0.00066688   -0.00008484
     atom   23 type  1   force =     0.00002075   -0.00117958    0.00203588
     atom   24 type  1   force =    -0.00118135   -0.00068583   -0.00004254
     atom   25 type  1   force =    -0.00023830   -0.00012177   -0.00043773
     atom   26 type  1   force =     0.00023184   -0.00014955   -0.00045218
     atom   27 type  1   force =     0.00000668    0.00135295   -0.00006353
     atom   28 type  1   force =    -0.00013117   -0.00000001   -0.01742438
     atom   29 type  1   force =     0.00535221    0.01019153    0.00329255
     atom   30 type  1   force =    -0.00522083    0.01033590    0.00354503
     atom   31 type  1   force =     0.01145837   -0.00054726    0.00318584
     atom   32 type  1   force =     0.00017527   -0.00000017    0.00841971
     atom   33 type  1   force =    -0.01160442   -0.00056186    0.00364851
     atom   34 type  1   force =     0.00629893   -0.00962899    0.00331310
     atom   35 type  1   force =    -0.00619389   -0.00978975    0.00352325
     atom   36 type  1   force =    -0.00010644    0.00000065   -0.01935863
     atom   37 type  2   force =     0.00030584   -0.00000024   -0.02152657
     atom   38 type  3   force =     0.00083025   -0.00000025   -0.08233914

     Total force =     0.001509     Total SCF correction =     0.000021

     Total 3D-RISM Solvation Force =     0.094269

     Writing output data file Cu-vib.save
 
     init_run     :    354.91s CPU    180.29s WALL (       1 calls)
     electrons    :   6963.36s CPU   3548.90s WALL (       1 calls)
     forces       :     26.79s CPU     13.30s WALL (       1 calls)

     Called by init_run:
     wfcinit      :     58.21s CPU     30.46s WALL (       1 calls)
     wfcinit:atom :      0.02s CPU      0.02s WALL (      34 calls)
     wfcinit:wfcr :     57.87s CPU     30.12s WALL (      34 calls)
     potinit      :    288.05s CPU    145.17s WALL (       1 calls)

     Called by electrons:
     c_bands      :   3893.62s CPU   2000.89s WALL (      33 calls)
     sum_band     :    529.27s CPU    270.14s WALL (      33 calls)
     v_of_rho     :     42.28s CPU     21.50s WALL (      33 calls)
     v_h          :      2.19s CPU      0.52s WALL (      66 calls)
     v_xc         :     42.63s CPU     21.85s WALL (      34 calls)
     newd         :      1.20s CPU      1.20s WALL (      33 calls)
     PAW_pot      :      5.68s CPU      2.69s WALL (      33 calls)
     mix_rho      :      0.55s CPU      0.55s WALL (      33 calls)

     Called by c_bands:
     init_us_2    :      2.53s CPU      1.50s WALL (    2312 calls)
     crmmdiagg    :   2531.76s CPU   1287.80s WALL (    1122 calls)
     wfcrot       :   1348.39s CPU    701.32s WALL (    1088 calls)
     gsorth       :     68.29s CPU     39.43s WALL (    1122 calls)

     Called by sum_band:
     sum_band:bec :      2.22s CPU      1.21s WALL (    1122 calls)
     addusdens    :      1.19s CPU      1.19s WALL (      33 calls)

     Called by *rmmdiagg:
     h_psi        :   3469.57s CPU   1779.74s WALL (    9623 calls)
     s_psi        :     55.85s CPU     26.61s WALL (    9623 calls)
     cdiaghg      :    157.24s CPU     79.39s WALL (    1088 calls)
     cdiaghg:chol :      4.79s CPU      2.74s WALL (    1088 calls)
     cdiaghg:inve :      1.78s CPU      1.78s WALL (    1088 calls)
     cdiaghg:para :      1.69s CPU      1.70s WALL (    2176 calls)

     Called by h_psi:
     h_psi:pot    :   3467.21s CPU   1778.37s WALL (    9623 calls)
     h_psi:calbec :    124.13s CPU     66.61s WALL (    9623 calls)
     vloc_psi     :   3290.99s CPU   1684.23s WALL (    9623 calls)
     add_vuspsi   :     51.90s CPU     27.36s WALL (    9623 calls)

     General routines
     calbec       :    160.33s CPU     85.54s WALL (   10881 calls)
     fft          :     31.09s CPU     15.41s WALL (    2339 calls)
     ffts         :      1.19s CPU      0.15s WALL (      66 calls)
     fftw         :   3697.10s CPU   1890.91s WALL ( 1944548 calls)
     fftc         :      0.15s CPU      0.15s WALL (      66 calls)
     interpolate  :      1.62s CPU      0.59s WALL (      66 calls)
 
     Parallel routines
     fft_scatter  :   2699.66s CPU   1426.03s WALL ( 2041708 calls)

     PAW routines
     PAW_pot      :      5.68s CPU      2.69s WALL (      33 calls)

     RISM routines
     1DRISM_pre   :     28.63s CPU     14.23s WALL (       1 calls)
     1DRISM_run   :      0.28s CPU      1.18s WALL (       1 calls)
     3DRISM_pre   :     10.64s CPU      6.30s WALL (       1 calls)
     3DRISM_run   :   2761.06s CPU   1388.26s WALL (      33 calls)
     3DRISM_for   :      6.01s CPU      2.89s WALL (       1 calls)
     3DRISM_vsol  :      0.21s CPU      0.21s WALL (      33 calls)
 
     PWSCF        :     2h 5m CPU        1h 4m WALL

 
   This run was terminated on:   0:31: 6  11Feb2026            

=------------------------------------------------------------------------------=
   JOB DONE.
=------------------------------------------------------------------------------=
