
     Program PWSCF v.6.1 starts on  9Feb2026 at 14:49:41 

     This program is part of the open-source Quantum ESPRESSO suite
     for quantum simulation of materials; please cite
         "P. Giannozzi et al., J. Phys.:Condens. Matter 21 395502 (2009);
          URL http://www.quantum-espresso.org", 
     in publications or presentations arising from this work. More details at
     http://www.quantum-espresso.org/quote

     Parallel version (MPI & OpenMP), running on     192 processor cores
     Number of MPI processes:                96
     Threads/MPI process:                     2
     R & G space division:  proc/nbgrp/npool/nimage =      96
     Reading input from espresso.pwi
Warning: card &IONS ignored
Warning: card    ION_DYNAMICS     = 'BFGS' ignored
Warning: card / ignored
Warning: card &CELL ignored
Warning: card / ignored
Warning: card &FCP ignored
Warning: card / ignored
Warning: card &RISM ignored
Warning: card / ignored

     Current dimensions of program PWSCF are:
     Max number of different atomic species (ntypx) = 10
     Max number of k-points (npk) =  40000
     Max angular momentum in pseudopotentials (lmaxx) =  3

     IMPORTANT: XC functional enforced from input :
     Exchange-correlation      = VDW-DF2 ( 1  4 13  0 2 0)
     Any further DFT definition will be discarded
     Please, verify this is what you really want

               file O.pbe-n-kjpaw_psl.1.0.0.UPF: wavefunction(s)  2S 2P renormalized
               file H.pbe-kjpaw_psl.1.0.0.UPF: wavefunction(s)  1S renormalized

     Subspace diagonalization in iterative solution of the eigenvalue problem:
     one sub-group per band group will be used
     ELPA distributed-memory algorithm (size of sub-group:  6*  6 procs)

 
     Parallelization info
     --------------------
     sticks:   dense  smooth     PW     G-vecs:    dense   smooth      PW
     Min         740     296     74               148294    37508    4688
     Max         741     297     76               148300    37516    4690
     Sum       71041   28417   7129             14236565  3601159  450127
 


     bravais-lattice index     =            0
     lattice parameter (alat)  =      37.7945  a.u.
     unit-cell volume          =   53986.6738 (a.u.)^3
     number of atoms/cell      =            3
     number of atomic types    =            2
     number of electrons       =         8.00
     number of Kohn-Sham states=           40
     kinetic-energy cutoff     =      62.4738  Ry
     charge density cutoff     =     624.7385  Ry
     convergence threshold     =      7.3E-12
     mixing beta               =       0.3333
     number of iterations used =           12  plain     mixing
     Exchange-correlation      = VDW-DF2 ( 1  4 13  0 2 0)

     Effective Screening Medium Method
     =================================
     Boundary Conditions: Vacuum-Slab-Vacuum
     total charge in unit cell        =   0.0000
     grid points for fit at edges     =        4 
 

     celldm(1)=  37.794522  celldm(2)=   0.000000  celldm(3)=   0.000000
     celldm(4)=   0.000000  celldm(5)=   0.000000  celldm(6)=   0.000000

     crystal axes: (cart. coord. in units of alat)
               a(1) = (   1.000000   0.000000   0.000000 )  
               a(2) = (   0.000000   1.000000   0.000000 )  
               a(3) = (   0.000000   0.000000   1.000000 )  

     reciprocal axes: (cart. coord. in units 2 pi/alat)
               b(1) = (  1.000000  0.000000  0.000000 )  
               b(2) = (  0.000000  1.000000  0.000000 )  
               b(3) = (  0.000000  0.000000  1.000000 )  


     PseudoPot. # 1 for  O read from file:
     /work/gf93/f93007/QE/pseudo/O.pbe-n-kjpaw_psl.1.0.0.UPF
     MD5 check sum: c61d840054b6bba219e553541e327118
     Pseudo is Projector augmented-wave + core cor, Zval =  6.0
     Generated using "atomic" code by A. Dal Corso  v.6.1 svn rev. 13369
     Shape of augmentation charge: PSQ
     Using radial grid of 1095 points,  4 beta functions with: 
                l(1) =   0
                l(2) =   0
                l(3) =   1
                l(4) =   1
     Q(r) pseudized with 0 coefficients 


     PseudoPot. # 2 for  H read from file:
     /work/gf93/f93007/QE/pseudo/H.pbe-kjpaw_psl.1.0.0.UPF
     MD5 check sum: 29603ce6b94be0cf73e39cbb1f958d8e
     Pseudo is Projector augmented-wave, Zval =  1.0
     Generated using "atomic" code by A. Dal Corso  v.6.1 svn rev. 13369
     Shape of augmentation charge: PSQ
     Using radial grid of  929 points,  2 beta functions with: 
                l(1) =   0
                l(2) =   0
     Q(r) pseudized with 0 coefficients 


     vdW kernel table read from file vdW_kernel_table
     MD5 check sum: 6d69797d2e858e93e031fb7d16d30e50

     atomic species   valence    mass     pseudopotential
        O              6.00    15.99900      O( 1.00)
        H              1.00     1.00800      H( 1.00)

      2 Sym. Ops. (no inversion) found


                                    s                        frac. trans.

      isym =  1     identity                                     

 cryst.   s( 1) = (     1          0          0      )
                  (     0          1          0      )
                  (     0          0          1      )

 cart.    s( 1) = (  1.0000000  0.0000000  0.0000000 )
                  (  0.0000000  1.0000000  0.0000000 )
                  (  0.0000000  0.0000000  1.0000000 )


      isym =  2     inv. 180 deg rotation - cart. axis [1,0,0]   

 cryst.   s( 2) = (    -1          0          0      )
                  (     0          1          0      )
                  (     0          0          1      )

 cart.    s( 2) = ( -1.0000000  0.0000000  0.0000000 )
                  (  0.0000000  1.0000000  0.0000000 )
                  (  0.0000000  0.0000000  1.0000000 )


   Cartesian axes

     site n.     atom                  positions (alat units)
         1           O   tau(   1) = (   0.5000000   0.5000000   0.0001590  )
         2           H   tau(   2) = (   0.5000000   0.5384535   0.0297364  )
         3           H   tau(   3) = (   0.5000000   0.4610465   0.0297364  )

   Crystallographic axes

     site n.     atom                  positions (cryst. coord.)
         1           O   tau(   1) = (  0.5000000  0.5000000  0.0001590  )
         2           H   tau(   2) = (  0.5000000  0.5384535  0.0297364  )
         3           H   tau(   3) = (  0.5000000  0.4610465  0.0297364  )

     number of k points=     1
                       cart. coord. in units 2pi/alat
        k(    1) = (   0.0000000   0.0000000   0.0000000), wk =   2.0000000

                       cryst. coord.
        k(    1) = (   0.0000000   0.0000000   0.0000000), wk =   2.0000000

     Dense  grid: 14236565 G-vectors     FFT dimensions: ( 320, 320, 320)

     Smooth grid:  3601159 G-vectors     FFT dimensions: ( 192, 192, 192)

     Estimated max dynamical RAM per process >     488.77MB

     Estimated total allocated dynamical RAM >   46922.27MB

     Initial potential from superposition of free atoms
     Check: negative starting charge=   -0.001152

     starting charge    7.99998, renormalised to    8.00000

     negative rho (up, down):  1.152E-03 0.000E+00


     %%%%%%%%%%%%%%%%%%%%%%%%%%%%%%%%%%%%%%%%%%%%%%%%%%%%%%%%%%%%%%%%%%%%%%%%
     %                                                                      %
     % You are using vdW-DF, which was implemented by the Thonhauser group. %
     % Please cite the following two papers that made this development      %
     % possible and the two reviews that describe the various versions:     %
     %                                                                      %
     %   T. Thonhauser et al., PRL 115, 136402 (2015).                      %
     %   T. Thonhauser et al., PRB 76, 125112 (2007).                       %
     %   K. Berland et al., Rep. Prog. Phys. 78, 066501 (2015).             %
     %   D.C. Langreth et al., J. Phys.: Condens. Matter 21, 084203 (2009). %
     %                                                                      %
     %                                                                      %
     % If you are calculating the stress with vdW-DF, please also cite:     %
     %                                                                      %
     %   R. Sabatini et al., J. Phys.: Condens. Matter 24, 424209 (2012).   %
     %                                                                      %
     %%%%%%%%%%%%%%%%%%%%%%%%%%%%%%%%%%%%%%%%%%%%%%%%%%%%%%%%%%%%%%%%%%%%%%%%


     Carrying out vdW-DF run using the following parameters:
     Nqs    =  20  Npoints =  1024  r_max =  100.000
     q_mesh =  0.00001000  0.04494208  0.09755937  0.15916263
               0.23128650  0.31572767  0.41458969  0.53033537
               0.66584808  0.82450364  1.01025438  1.22772762
               1.48234092  1.78043706  2.12944203  2.53805004
               3.01644009  3.57652955  4.23227104  5.00000000


     -----------------------------------------------
     Non-local corr. energy    =       0.13356856 Ry
     -----------------------------------------------

     Starting wfc are    6 randomized atomic wfcs +   34 random wfc
     Checking if some PAW data can be deallocated... 
       node    0, deallocated PAW data for type:  2
       node    1, deallocated PAW data for type:  2
       node    2, deallocated PAW data for type:  2
       node    3, deallocated PAW data for type:  2
       node    4, deallocated PAW data for type:  2
       node    5, deallocated PAW data for type:  2
       node    6, deallocated PAW data for type:  2
       node    7, deallocated PAW data for type:  2
       node    8, deallocated PAW data for type:  2
       node    9, deallocated PAW data for type:  2
       node   10, deallocated PAW data for type:  2
       node   11, deallocated PAW data for type:  2
       node   12, deallocated PAW data for type:  2
       node   13, deallocated PAW data for type:  2
       node   14, deallocated PAW data for type:  2
       node   15, deallocated PAW data for type:  2
       node   16, deallocated PAW data for type:  2
       node   17, deallocated PAW data for type:  2
       node   18, deallocated PAW data for type:  2
       node   19, deallocated PAW data for type:  2
       node   20, deallocated PAW data for type:  2
       node   21, deallocated PAW data for type:  2
       node   22, deallocated PAW data for type:  2
       node   23, deallocated PAW data for type:  2
       node   24, deallocated PAW data for type:  2
       node   25, deallocated PAW data for type:  2
       node   26, deallocated PAW data for type:  2
       node   27, deallocated PAW data for type:  2
       node   28, deallocated PAW data for type:  2
       node   29, deallocated PAW data for type:  2
       node   30, deallocated PAW data for type:  2
       node   31, deallocated PAW data for type:  2
       node   32, deallocated PAW data for type:  1
       node   33, deallocated PAW data for type:  1
       node   34, deallocated PAW data for type:  1
       node   35, deallocated PAW data for type:  1
       node   36, deallocated PAW data for type:  1
       node   37, deallocated PAW data for type:  1
       node   38, deallocated PAW data for type:  1
       node   39, deallocated PAW data for type:  1
       node   40, deallocated PAW data for type:  1
       node   41, deallocated PAW data for type:  1
       node   42, deallocated PAW data for type:  1
       node   43, deallocated PAW data for type:  1
       node   44, deallocated PAW data for type:  1
       node   45, deallocated PAW data for type:  1
       node   46, deallocated PAW data for type:  1
       node   47, deallocated PAW data for type:  1
       node   48, deallocated PAW data for type:  1
       node   49, deallocated PAW data for type:  1
       node   50, deallocated PAW data for type:  1
       node   51, deallocated PAW data for type:  1
       node   52, deallocated PAW data for type:  1
       node   53, deallocated PAW data for type:  1
       node   54, deallocated PAW data for type:  1
       node   55, deallocated PAW data for type:  1
       node   56, deallocated PAW data for type:  1
       node   57, deallocated PAW data for type:  1
       node   58, deallocated PAW data for type:  1
       node   59, deallocated PAW data for type:  1
       node   60, deallocated PAW data for type:  1
       node   61, deallocated PAW data for type:  1
       node   62, deallocated PAW data for type:  1
       node   63, deallocated PAW data for type:  1
       node   64, deallocated PAW data for type:  1
       node   65, deallocated PAW data for type:  1
       node   66, deallocated PAW data for type:  1
       node   67, deallocated PAW data for type:  1
       node   68, deallocated PAW data for type:  1
       node   69, deallocated PAW data for type:  1
       node   70, deallocated PAW data for type:  1
       node   71, deallocated PAW data for type:  1
       node   72, deallocated PAW data for type:  1
       node   73, deallocated PAW data for type:  1
       node   74, deallocated PAW data for type:  1
       node   75, deallocated PAW data for type:  1
       node   76, deallocated PAW data for type:  1
       node   77, deallocated PAW data for type:  1
       node   78, deallocated PAW data for type:  1
       node   79, deallocated PAW data for type:  1
       node   80, deallocated PAW data for type:  1
       node   81, deallocated PAW data for type:  1
       node   82, deallocated PAW data for type:  1
       node   83, deallocated PAW data for type:  1
       node   84, deallocated PAW data for type:  1
       node   85, deallocated PAW data for type:  1
       node   86, deallocated PAW data for type:  1
       node   87, deallocated PAW data for type:  1
       node   88, deallocated PAW data for type:  1
       node   89, deallocated PAW data for type:  1
       node   90, deallocated PAW data for type:  1
       node   91, deallocated PAW data for type:  1
       node   92, deallocated PAW data for type:  1
       node   93, deallocated PAW data for type:  1
       node   94, deallocated PAW data for type:  1
       node   95, deallocated PAW data for type:  1

     total cpu time spent up to now is       25.5 secs

     per-process dynamical memory:   235.5 Mb

     Self-consistent Calculation

     iteration #  1     ecut=    62.47 Ry     beta=0.33
     Davidson diagonalization with overlap
     ethr =  1.00E-02,  avg # of iterations = 12.0

     negative rho (up, down):  1.365E-03 0.000E+00


     -----------------------------------------------
     Non-local corr. energy    =       0.13508347 Ry
     -----------------------------------------------


     total cpu time spent up to now is       35.0 secs

     total energy              =     -44.94319325 Ry
     Harris-Foulkes estimate   =     -45.19626953 Ry
     estimated scf accuracy    <       0.53728042 Ry

     iteration #  2     ecut=    62.47 Ry     beta=0.33
     Davidson diagonalization with overlap
     ethr =  6.72E-03,  avg # of iterations =  1.0

     negative rho (up, down):  8.986E-04 0.000E+00


     -----------------------------------------------
     Non-local corr. energy    =       0.13563943 Ry
     -----------------------------------------------


     total cpu time spent up to now is       41.9 secs

     total energy              =     -44.98688413 Ry
     Harris-Foulkes estimate   =     -45.00575305 Ry
     estimated scf accuracy    <       0.04698194 Ry

     iteration #  3     ecut=    62.47 Ry     beta=0.33
     Davidson diagonalization with overlap
     ethr =  5.87E-04,  avg # of iterations =  6.0

     negative rho (up, down):  1.503E-03 0.000E+00


     -----------------------------------------------
     Non-local corr. energy    =       0.13503381 Ry
     -----------------------------------------------


     total cpu time spent up to now is       49.8 secs

     total energy              =     -45.00679042 Ry
     Harris-Foulkes estimate   =     -45.03662632 Ry
     estimated scf accuracy    <       0.04599409 Ry

     iteration #  4     ecut=    62.47 Ry     beta=0.33
     Davidson diagonalization with overlap
     ethr =  5.75E-04,  avg # of iterations =  3.0

     negative rho (up, down):  1.555E-03 0.000E+00


     -----------------------------------------------
     Non-local corr. energy    =       0.13631802 Ry
     -----------------------------------------------


     total cpu time spent up to now is       56.7 secs

     total energy              =     -45.01049627 Ry
     Harris-Foulkes estimate   =     -45.04326827 Ry
     estimated scf accuracy    <       0.06425629 Ry

     iteration #  5     ecut=    62.47 Ry     beta=0.33
     Davidson diagonalization with overlap
     ethr =  5.75E-04,  avg # of iterations =  5.0

     negative rho (up, down):  1.466E-03 0.000E+00


     -----------------------------------------------
     Non-local corr. energy    =       0.13627180 Ry
     -----------------------------------------------


     total cpu time spent up to now is       63.8 secs

     total energy              =     -45.01925020 Ry
     Harris-Foulkes estimate   =     -45.01940139 Ry
     estimated scf accuracy    <       0.00206333 Ry

     iteration #  6     ecut=    62.47 Ry     beta=0.33
     Davidson diagonalization with overlap
     ethr =  2.58E-05,  avg # of iterations = 14.0

     negative rho (up, down):  1.481E-03 0.000E+00


     -----------------------------------------------
     Non-local corr. energy    =       0.13621358 Ry
     -----------------------------------------------


     total cpu time spent up to now is       72.9 secs

     total energy              =     -45.02461683 Ry
     Harris-Foulkes estimate   =     -45.02489244 Ry
     estimated scf accuracy    <       0.00115022 Ry

     iteration #  7     ecut=    62.47 Ry     beta=0.33
     Davidson diagonalization with overlap
     ethr =  1.44E-05,  avg # of iterations =  1.0

     negative rho (up, down):  1.609E-03 0.000E+00


     -----------------------------------------------
     Non-local corr. energy    =       0.13612877 Ry
     -----------------------------------------------


     total cpu time spent up to now is       79.6 secs

     total energy              =     -45.02429155 Ry
     Harris-Foulkes estimate   =     -45.02464013 Ry
     estimated scf accuracy    <       0.00055511 Ry

     iteration #  8     ecut=    62.47 Ry     beta=0.33
     Davidson diagonalization with overlap
     ethr =  6.94E-06,  avg # of iterations =  3.0

     negative rho (up, down):  1.617E-03 0.000E+00


     -----------------------------------------------
     Non-local corr. energy    =       0.13613416 Ry
     -----------------------------------------------


     total cpu time spent up to now is       86.5 secs

     total energy              =     -45.02460057 Ry
     Harris-Foulkes estimate   =     -45.02465734 Ry
     estimated scf accuracy    <       0.00032199 Ry

     iteration #  9     ecut=    62.47 Ry     beta=0.33
     Davidson diagonalization with overlap
     ethr =  4.02E-06,  avg # of iterations =  1.0

     negative rho (up, down):  1.628E-03 0.000E+00


     -----------------------------------------------
     Non-local corr. energy    =       0.13613979 Ry
     -----------------------------------------------


     total cpu time spent up to now is       93.2 secs

     total energy              =     -45.02456734 Ry
     Harris-Foulkes estimate   =     -45.02460397 Ry
     estimated scf accuracy    <       0.00019898 Ry

     iteration # 10     ecut=    62.47 Ry     beta=0.33
     Davidson diagonalization with overlap
     ethr =  2.49E-06,  avg # of iterations =  1.0

     negative rho (up, down):  1.628E-03 0.000E+00


     -----------------------------------------------
     Non-local corr. energy    =       0.13614032 Ry
     -----------------------------------------------


     total cpu time spent up to now is       99.8 secs

     total energy              =     -45.02457506 Ry
     Harris-Foulkes estimate   =     -45.02457601 Ry
     estimated scf accuracy    <       0.00007451 Ry

     iteration # 11     ecut=    62.47 Ry     beta=0.33
     Davidson diagonalization with overlap
     ethr =  9.31E-07,  avg # of iterations =  1.0

     negative rho (up, down):  1.629E-03 0.000E+00


     -----------------------------------------------
     Non-local corr. energy    =       0.13613894 Ry
     -----------------------------------------------


     total cpu time spent up to now is      106.5 secs

     total energy              =     -45.02457748 Ry
     Harris-Foulkes estimate   =     -45.02457793 Ry
     estimated scf accuracy    <       0.00007130 Ry

     iteration # 12     ecut=    62.47 Ry     beta=0.33
     Davidson diagonalization with overlap
     ethr =  8.91E-07,  avg # of iterations =  1.0

     negative rho (up, down):  1.629E-03 0.000E+00


     -----------------------------------------------
     Non-local corr. energy    =       0.13613897 Ry
     -----------------------------------------------


     total cpu time spent up to now is      113.2 secs

     total energy              =     -45.02457838 Ry
     Harris-Foulkes estimate   =     -45.02457890 Ry
     estimated scf accuracy    <       0.00005922 Ry

     iteration # 13     ecut=    62.47 Ry     beta=0.33
     Davidson diagonalization with overlap
     ethr =  7.40E-07,  avg # of iterations =  1.0

     negative rho (up, down):  1.627E-03 0.000E+00


     -----------------------------------------------
     Non-local corr. energy    =       0.13614041 Ry
     -----------------------------------------------


     total cpu time spent up to now is      119.9 secs

     total energy              =     -45.02457388 Ry
     Harris-Foulkes estimate   =     -45.02457930 Ry
     estimated scf accuracy    <       0.00005764 Ry

     iteration # 14     ecut=    62.47 Ry     beta=0.33
     Davidson diagonalization with overlap
     ethr =  7.21E-07,  avg # of iterations =  1.0

     negative rho (up, down):  1.624E-03 0.000E+00


     -----------------------------------------------
     Non-local corr. energy    =       0.13614143 Ry
     -----------------------------------------------


     total cpu time spent up to now is      126.6 secs

     total energy              =     -45.02457300 Ry
     Harris-Foulkes estimate   =     -45.02457472 Ry
     estimated scf accuracy    <       0.00004006 Ry

     iteration # 15     ecut=    62.47 Ry     beta=0.33
     Davidson diagonalization with overlap
     ethr =  5.01E-07,  avg # of iterations =  1.0

     negative rho (up, down):  1.619E-03 0.000E+00


     -----------------------------------------------
     Non-local corr. energy    =       0.13614208 Ry
     -----------------------------------------------


     total cpu time spent up to now is      133.3 secs

     total energy              =     -45.02457156 Ry
     Harris-Foulkes estimate   =     -45.02457387 Ry
     estimated scf accuracy    <       0.00003378 Ry

     iteration # 16     ecut=    62.47 Ry     beta=0.33
     Davidson diagonalization with overlap
     ethr =  4.22E-07,  avg # of iterations =  1.0

     negative rho (up, down):  1.616E-03 0.000E+00


     -----------------------------------------------
     Non-local corr. energy    =       0.13614241 Ry
     -----------------------------------------------


     total cpu time spent up to now is      140.1 secs

     total energy              =     -45.02457209 Ry
     Harris-Foulkes estimate   =     -45.02457226 Ry
     estimated scf accuracy    <       0.00002373 Ry

     iteration # 17     ecut=    62.47 Ry     beta=0.33
     Davidson diagonalization with overlap
     ethr =  2.97E-07,  avg # of iterations =  1.0

     negative rho (up, down):  1.618E-03 0.000E+00


     -----------------------------------------------
     Non-local corr. energy    =       0.13614231 Ry
     -----------------------------------------------


     total cpu time spent up to now is      146.9 secs

     total energy              =     -45.02457270 Ry
     Harris-Foulkes estimate   =     -45.02457282 Ry
     estimated scf accuracy    <       0.00002149 Ry

     iteration # 18     ecut=    62.47 Ry     beta=0.33
     Davidson diagonalization with overlap
     ethr =  2.69E-07,  avg # of iterations =  1.0

     negative rho (up, down):  1.567E-03 0.000E+00


     -----------------------------------------------
     Non-local corr. energy    =       0.13614796 Ry
     -----------------------------------------------


     total cpu time spent up to now is      153.6 secs

     total energy              =     -45.02456274 Ry
     Harris-Foulkes estimate   =     -45.02457321 Ry
     estimated scf accuracy    <       0.00001731 Ry

     iteration # 19     ecut=    62.47 Ry     beta=0.33
     Davidson diagonalization with overlap
     ethr =  2.16E-07,  avg # of iterations =  3.0

     negative rho (up, down):  1.575E-03 0.000E+00


     -----------------------------------------------
     Non-local corr. energy    =       0.13614633 Ry
     -----------------------------------------------


     total cpu time spent up to now is      160.6 secs

     total energy              =     -45.02457371 Ry
     Harris-Foulkes estimate   =     -45.02457943 Ry
     estimated scf accuracy    <       0.00002021 Ry

     iteration # 20     ecut=    62.47 Ry     beta=0.33
     Davidson diagonalization with overlap
     ethr =  2.16E-07,  avg # of iterations =  1.0

     negative rho (up, down):  1.574E-03 0.000E+00


     -----------------------------------------------
     Non-local corr. energy    =       0.13614648 Ry
     -----------------------------------------------


     total cpu time spent up to now is      167.3 secs

     total energy              =     -45.02457443 Ry
     Harris-Foulkes estimate   =     -45.02457422 Ry
     estimated scf accuracy    <       0.00000868 Ry

     iteration # 21     ecut=    62.47 Ry     beta=0.33
     Davidson diagonalization with overlap
     ethr =  1.08E-07,  avg # of iterations =  1.0

     negative rho (up, down):  1.577E-03 0.000E+00


     -----------------------------------------------
     Non-local corr. energy    =       0.13614576 Ry
     -----------------------------------------------


     total cpu time spent up to now is      174.0 secs

     total energy              =     -45.02457261 Ry
     Harris-Foulkes estimate   =     -45.02457454 Ry
     estimated scf accuracy    <       0.00000892 Ry

     iteration # 22     ecut=    62.47 Ry     beta=0.33
     Davidson diagonalization with overlap
     ethr =  1.08E-07,  avg # of iterations =  1.0

     negative rho (up, down):  1.576E-03 0.000E+00


     -----------------------------------------------
     Non-local corr. energy    =       0.13614594 Ry
     -----------------------------------------------


     total cpu time spent up to now is      180.8 secs

     total energy              =     -45.02457249 Ry
     Harris-Foulkes estimate   =     -45.02457289 Ry
     estimated scf accuracy    <       0.00000437 Ry

     iteration # 23     ecut=    62.47 Ry     beta=0.33
     Davidson diagonalization with overlap
     ethr =  5.46E-08,  avg # of iterations =  3.0

     negative rho (up, down):  1.575E-03 0.000E+00


     -----------------------------------------------
     Non-local corr. energy    =       0.13614589 Ry
     -----------------------------------------------


     total cpu time spent up to now is      187.8 secs

     total energy              =     -45.02457348 Ry
     Harris-Foulkes estimate   =     -45.02457370 Ry
     estimated scf accuracy    <       0.00000042 Ry

     iteration # 24     ecut=    62.47 Ry     beta=0.33
     Davidson diagonalization with overlap
     ethr =  5.23E-09,  avg # of iterations =  3.0

     negative rho (up, down):  1.574E-03 0.000E+00


     -----------------------------------------------
     Non-local corr. energy    =       0.13614617 Ry
     -----------------------------------------------


     total cpu time spent up to now is      194.6 secs

     total energy              =     -45.02457366 Ry
     Harris-Foulkes estimate   =     -45.02457357 Ry
     estimated scf accuracy    <       0.00000006 Ry

     iteration # 25     ecut=    62.47 Ry     beta=0.33
     Davidson diagonalization with overlap
     ethr =  7.45E-10,  avg # of iterations =  3.0

     negative rho (up, down):  1.572E-03 0.000E+00


     -----------------------------------------------
     Non-local corr. energy    =       0.13614466 Ry
     -----------------------------------------------


     total cpu time spent up to now is      201.6 secs

     total energy              =     -45.02457408 Ry
     Harris-Foulkes estimate   =     -45.02457375 Ry
     estimated scf accuracy    <       0.00000041 Ry

     iteration # 26     ecut=    62.47 Ry     beta=0.33
     Davidson diagonalization with overlap
     ethr =  7.45E-10,  avg # of iterations =  3.0

     negative rho (up, down):  1.572E-03 0.000E+00


     -----------------------------------------------
     Non-local corr. energy    =       0.13614575 Ry
     -----------------------------------------------


     total cpu time spent up to now is      208.5 secs

     total energy              =     -45.02457391 Ry
     Harris-Foulkes estimate   =     -45.02457413 Ry
     estimated scf accuracy    <       0.00000131 Ry

     iteration # 27     ecut=    62.47 Ry     beta=0.33
     Davidson diagonalization with overlap
     ethr =  7.45E-10,  avg # of iterations =  2.0

     negative rho (up, down):  1.573E-03 0.000E+00


     -----------------------------------------------
     Non-local corr. energy    =       0.13614568 Ry
     -----------------------------------------------


     total cpu time spent up to now is      215.4 secs

     total energy              =     -45.02457393 Ry
     Harris-Foulkes estimate   =     -45.02457392 Ry
     estimated scf accuracy    <       0.00000079 Ry

     iteration # 28     ecut=    62.47 Ry     beta=0.33
     Davidson diagonalization with overlap
     ethr =  7.45E-10,  avg # of iterations =  1.0

     negative rho (up, down):  1.571E-03 0.000E+00


     -----------------------------------------------
     Non-local corr. energy    =       0.13614513 Ry
     -----------------------------------------------


     total cpu time spent up to now is      222.1 secs

     total energy              =     -45.02457354 Ry
     Harris-Foulkes estimate   =     -45.02457393 Ry
     estimated scf accuracy    <       0.00000090 Ry

     iteration # 29     ecut=    62.47 Ry     beta=0.33
     Davidson diagonalization with overlap
     ethr =  7.45E-10,  avg # of iterations =  3.0

     negative rho (up, down):  1.571E-03 0.000E+00


     -----------------------------------------------
     Non-local corr. energy    =       0.13614526 Ry
     -----------------------------------------------


     total cpu time spent up to now is      229.1 secs

     total energy              =     -45.02457370 Ry
     Harris-Foulkes estimate   =     -45.02457371 Ry
     estimated scf accuracy    <       0.00000002 Ry

     iteration # 30     ecut=    62.47 Ry     beta=0.33
     Davidson diagonalization with overlap
     ethr =  2.23E-10,  avg # of iterations =  1.0

     negative rho (up, down):  1.570E-03 0.000E+00


     -----------------------------------------------
     Non-local corr. energy    =       0.13614521 Ry
     -----------------------------------------------


     total cpu time spent up to now is      235.8 secs

     total energy              =     -45.02457374 Ry
     Harris-Foulkes estimate   =     -45.02457370 Ry
     estimated scf accuracy    <       0.00000001 Ry

     iteration # 31     ecut=    62.47 Ry     beta=0.33
     Davidson diagonalization with overlap
     ethr =  1.53E-10,  avg # of iterations =  4.0

     negative rho (up, down):  1.571E-03 0.000E+00


     -----------------------------------------------
     Non-local corr. energy    =       0.13614521 Ry
     -----------------------------------------------


     total cpu time spent up to now is      242.8 secs

     total energy              =     -45.02457381 Ry
     Harris-Foulkes estimate   =     -45.02457380 Ry
     estimated scf accuracy    <       0.00000038 Ry

     iteration # 32     ecut=    62.47 Ry     beta=0.33
     Davidson diagonalization with overlap
     ethr =  1.53E-10,  avg # of iterations =  1.0

     negative rho (up, down):  1.571E-03 0.000E+00


     -----------------------------------------------
     Non-local corr. energy    =       0.13614523 Ry
     -----------------------------------------------


     total cpu time spent up to now is      249.5 secs

     total energy              =     -45.02457383 Ry
     Harris-Foulkes estimate   =     -45.02457381 Ry
     estimated scf accuracy    <       0.00000043 Ry

     iteration # 33     ecut=    62.47 Ry     beta=0.33
     Davidson diagonalization with overlap
     ethr =  1.53E-10,  avg # of iterations =  2.0

     negative rho (up, down):  1.571E-03 0.000E+00


     -----------------------------------------------
     Non-local corr. energy    =       0.13614529 Ry
     -----------------------------------------------


     total cpu time spent up to now is      256.3 secs

     total energy              =     -45.02457388 Ry
     Harris-Foulkes estimate   =     -45.02457383 Ry
     estimated scf accuracy    <       0.00000054 Ry

     iteration # 34     ecut=    62.47 Ry     beta=0.33
     Davidson diagonalization with overlap
     ethr =  1.53E-10,  avg # of iterations =  3.0

     negative rho (up, down):  1.570E-03 0.000E+00


     -----------------------------------------------
     Non-local corr. energy    =       0.13614540 Ry
     -----------------------------------------------


     total cpu time spent up to now is      263.2 secs

     total energy              =     -45.02457385 Ry
     Harris-Foulkes estimate   =     -45.02457389 Ry
     estimated scf accuracy    <       0.00000089 Ry

     iteration # 35     ecut=    62.47 Ry     beta=0.33
     Davidson diagonalization with overlap
     ethr =  1.53E-10,  avg # of iterations =  1.0

     negative rho (up, down):  1.567E-03 0.000E+00


     -----------------------------------------------
     Non-local corr. energy    =       0.13614568 Ry
     -----------------------------------------------


     total cpu time spent up to now is      269.9 secs

     total energy              =     -45.02457366 Ry
     Harris-Foulkes estimate   =     -45.02457385 Ry
     estimated scf accuracy    <       0.00000077 Ry

     iteration # 36     ecut=    62.47 Ry     beta=0.33
     Davidson diagonalization with overlap
     ethr =  1.53E-10,  avg # of iterations =  4.0

     negative rho (up, down):  1.569E-03 0.000E+00


     -----------------------------------------------
     Non-local corr. energy    =       0.13614544 Ry
     -----------------------------------------------


     total cpu time spent up to now is      276.9 secs

     total energy              =     -45.02457378 Ry
     Harris-Foulkes estimate   =     -45.02457378 Ry
     estimated scf accuracy    <       0.00000001 Ry

     iteration # 37     ecut=    62.47 Ry     beta=0.33
     Davidson diagonalization with overlap
     ethr =  1.34E-10,  avg # of iterations =  1.0

     negative rho (up, down):  1.569E-03 0.000E+00


     -----------------------------------------------
     Non-local corr. energy    =       0.13614542 Ry
     -----------------------------------------------


     total cpu time spent up to now is      283.6 secs

     total energy              =     -45.02457378 Ry
     Harris-Foulkes estimate   =     -45.02457378 Ry
     estimated scf accuracy    <       0.00000002 Ry

     iteration # 38     ecut=    62.47 Ry     beta=0.33
     Davidson diagonalization with overlap
     ethr =  1.34E-10,  avg # of iterations =  1.0

     negative rho (up, down):  1.569E-03 0.000E+00


     -----------------------------------------------
     Non-local corr. energy    =       0.13614540 Ry
     -----------------------------------------------


     total cpu time spent up to now is      290.3 secs

     total energy              =     -45.02457379 Ry
     Harris-Foulkes estimate   =     -45.02457378 Ry
     estimated scf accuracy    <       0.00000001 Ry

     iteration # 39     ecut=    62.47 Ry     beta=0.33
     Davidson diagonalization with overlap
     ethr =  1.34E-10,  avg # of iterations =  3.0

     negative rho (up, down):  1.568E-03 0.000E+00


     -----------------------------------------------
     Non-local corr. energy    =       0.13614543 Ry
     -----------------------------------------------


     total cpu time spent up to now is      297.2 secs

     total energy              =     -45.02457382 Ry
     Harris-Foulkes estimate   =     -45.02457380 Ry
     estimated scf accuracy    <          4.1E-10 Ry

     iteration # 40     ecut=    62.47 Ry     beta=0.33
     Davidson diagonalization with overlap
     ethr =  5.15E-12,  avg # of iterations =  4.0

     negative rho (up, down):  1.568E-03 0.000E+00


     -----------------------------------------------
     Non-local corr. energy    =       0.13614545 Ry
     -----------------------------------------------


     total cpu time spent up to now is      304.3 secs

     total energy              =     -45.02457381 Ry
     Harris-Foulkes estimate   =     -45.02457382 Ry
     estimated scf accuracy    <       0.00000002 Ry

     iteration # 41     ecut=    62.47 Ry     beta=0.33
     Davidson diagonalization with overlap
     ethr =  5.15E-12,  avg # of iterations =  3.0

     negative rho (up, down):  1.569E-03 0.000E+00


     -----------------------------------------------
     Non-local corr. energy    =       0.13614543 Ry
     -----------------------------------------------


     total cpu time spent up to now is      311.2 secs

     total energy              =     -45.02457380 Ry
     Harris-Foulkes estimate   =     -45.02457381 Ry
     estimated scf accuracy    <          1.6E-09 Ry

     iteration # 42     ecut=    62.47 Ry     beta=0.33
     Davidson diagonalization with overlap
     ethr =  5.15E-12,  avg # of iterations =  3.0

     negative rho (up, down):  1.569E-03 0.000E+00


     -----------------------------------------------
     Non-local corr. energy    =       0.13614544 Ry
     -----------------------------------------------


     total cpu time spent up to now is      318.1 secs

     total energy              =     -45.02457380 Ry
     Harris-Foulkes estimate   =     -45.02457380 Ry
     estimated scf accuracy    <          1.5E-09 Ry

     iteration # 43     ecut=    62.47 Ry     beta=0.33
     Davidson diagonalization with overlap
     ethr =  5.15E-12,  avg # of iterations =  1.0

     negative rho (up, down):  1.569E-03 0.000E+00


     -----------------------------------------------
     Non-local corr. energy    =       0.13614545 Ry
     -----------------------------------------------


     total cpu time spent up to now is      324.8 secs

     total energy              =     -45.02457380 Ry
     Harris-Foulkes estimate   =     -45.02457380 Ry
     estimated scf accuracy    <          1.6E-09 Ry

     iteration # 44     ecut=    62.47 Ry     beta=0.33
     Davidson diagonalization with overlap
     ethr =  5.15E-12,  avg # of iterations =  3.0

     negative rho (up, down):  1.569E-03 0.000E+00


     -----------------------------------------------
     Non-local corr. energy    =       0.13614545 Ry
     -----------------------------------------------


     total cpu time spent up to now is      331.8 secs

     total energy              =     -45.02457380 Ry
     Harris-Foulkes estimate   =     -45.02457380 Ry
     estimated scf accuracy    <          6.1E-11 Ry

     iteration # 45     ecut=    62.47 Ry     beta=0.33
     Davidson diagonalization with overlap
     ethr =  7.66E-13,  avg # of iterations =  3.0

     negative rho (up, down):  1.569E-03 0.000E+00


     -----------------------------------------------
     Non-local corr. energy    =       0.13614545 Ry
     -----------------------------------------------


     total cpu time spent up to now is      338.6 secs

     total energy              =     -45.02457380 Ry
     Harris-Foulkes estimate   =     -45.02457380 Ry
     estimated scf accuracy    <          1.3E-11 Ry

     iteration # 46     ecut=    62.47 Ry     beta=0.33
     Davidson diagonalization with overlap
     ethr =  1.58E-13,  avg # of iterations =  1.0

     negative rho (up, down):  1.569E-03 0.000E+00


     -----------------------------------------------
     Non-local corr. energy    =       0.13614545 Ry
     -----------------------------------------------


     total cpu time spent up to now is      345.4 secs

     total energy              =     -45.02457380 Ry
     Harris-Foulkes estimate   =     -45.02457380 Ry
     estimated scf accuracy    <          1.7E-11 Ry

     iteration # 47     ecut=    62.47 Ry     beta=0.33
     Davidson diagonalization with overlap
     ethr =  1.58E-13,  avg # of iterations =  1.0

     negative rho (up, down):  1.569E-03 0.000E+00


     -----------------------------------------------
     Non-local corr. energy    =       0.13614546 Ry
     -----------------------------------------------


     total cpu time spent up to now is      352.0 secs

     End of self-consistent calculation

          k = 0.0000 0.0000 0.0000 (450127 PWs)   bands (ev):

   -25.5713 -13.5272  -9.6694  -7.6471  -1.4837  -0.1536  -0.0113   0.1332
     0.1427   0.1858   0.2112   0.3017   0.3114   0.4476   0.4671   0.5454
     0.5465   0.5495   0.5598   0.5767   0.5871   0.5880   0.5882   0.7532
     0.7772   0.8641   0.8800   0.9201   0.9277   0.9421   0.9551   1.0744
     1.1125   1.2058   1.2237   1.2631   1.2926   1.3835   1.4168   1.4987

     occupation numbers 
     1.0000   1.0000   1.0000   1.0000   0.0000   0.0000   0.0000   0.0000
     0.0000   0.0000   0.0000   0.0000   0.0000   0.0000   0.0000   0.0000
     0.0000   0.0000   0.0000   0.0000   0.0000   0.0000   0.0000   0.0000
     0.0000   0.0000   0.0000   0.0000   0.0000   0.0000   0.0000   0.0000
     0.0000   0.0000   0.0000   0.0000   0.0000   0.0000   0.0000   0.0000

     highest occupied, lowest unoccupied level (ev):    -7.6471   -1.4837

!    total energy              =     -45.02457380 Ry
     Harris-Foulkes estimate   =     -45.02457380 Ry
     estimated scf accuracy    <          6.5E-12 Ry

     total all-electron energy =      -153.871456 Ry

     The total energy is the sum of the following terms:

     one-electron contribution =     -68.76511653 Ry
     hartree contribution      =      36.07190524 Ry
     xc contribution           =      -9.22141137 Ry
     ewald contribution        =       7.11582552 Ry
     one-center paw contrib.   =     -10.22577666 Ry
      -> PAW hartree energy AE =      27.81961264 Ry
      -> PAW hartree energy PS =     -27.78496823 Ry
      -> PAW xc energy AE      =     -17.89211994 Ry
      -> PAW xc energy PS      =       7.63294094 Ry
      -> total E_H with PAW    =      36.10654965 Ry
      -> total E_XC with PAW   =     -19.48059036 Ry

     convergence has been achieved in  47 iterations

     negative rho (up, down):  1.569E-03 0.000E+00


     -----------------------------------------------
     Non-local corr. energy    =       0.13614546 Ry
     -----------------------------------------------


     Forces acting on atoms (cartesian axes, Ry/au):

     atom    1 type  1   force =     0.00000000   -0.01156127    0.00652286
     atom    2 type  2   force =     0.00000000   -0.00111921    0.00113637
     atom    3 type  2   force =     0.00000000    0.01268048   -0.00765764
     The non-local contrib.  to forces
     atom    1 type  1   force =     0.00000000   -0.00216241    2.50936235
     atom    2 type  2   force =     0.00000000   -0.09248532   -0.06532535
     atom    3 type  2   force =     0.00000000    0.09030907   -0.06281821
     The ionic contribution  to forces
     atom    1 type  1   force =     0.00000000   -0.03250516   -4.30443648
     atom    2 type  2   force =     0.00000000    3.06108576    2.17851859
     atom    3 type  2   force =     0.00000000   -3.02858060    2.12591788
     The local contribution  to forces
     atom    1 type  1   force =    -0.00001460    0.02303872    1.82578102
     atom    2 type  2   force =    -0.00000128   -2.96972027   -2.11205748
     atom    3 type  2   force =    -0.00000126    2.95095231   -2.07075793
     The core correction contribution to forces
     atom    1 type  1   force =     0.00000014    0.00006750   -0.02418734
     atom    2 type  2   force =     0.00000000    0.00000000    0.00000000
     atom    3 type  2   force =     0.00000000    0.00000000    0.00000000
     The Hubbard contrib.    to forces
     atom    1 type  1   force =     0.00000000    0.00000000    0.00000000
     atom    2 type  2   force =     0.00000000    0.00000000    0.00000000
     atom    3 type  2   force =     0.00000000    0.00000000    0.00000000
     The SCF correction term to forces
     atom    1 type  1   force =     0.00000000   -0.00000008    0.00000331
     atom    2 type  2   force =     0.00000000    0.00000045    0.00000061
     atom    3 type  2   force =     0.00000000   -0.00000047    0.00000061

     Total force =     0.019955     Total SCF correction =     0.000003

     Writing output data file H2O_IR.save
 
     init_run     :     45.14s CPU     23.84s WALL (       1 calls)
     electrons    :    637.64s CPU    327.56s WALL (       1 calls)
     forces       :     15.69s CPU      7.58s WALL (       1 calls)

     Called by init_run:
     wfcinit      :      0.40s CPU      0.39s WALL (       1 calls)
     wfcinit:atom :      0.00s CPU      0.00s WALL (       1 calls)
     wfcinit:wfcr :      0.36s CPU      0.37s WALL (       1 calls)
     potinit      :     14.06s CPU      7.02s WALL (       1 calls)

     Called by electrons:
     c_bands      :     89.76s CPU     46.10s WALL (      47 calls)
     sum_band     :     40.28s CPU     21.65s WALL (      47 calls)
     v_of_rho     :    487.51s CPU    248.91s WALL (      48 calls)
     v_h          :      7.10s CPU      3.18s WALL (      48 calls)
     v_xc         :    490.45s CPU    250.76s WALL (      49 calls)
     newd         :     10.26s CPU      6.87s WALL (      48 calls)
     PAW_pot      :      3.77s CPU      1.74s WALL (      48 calls)
     mix_rho      :     10.60s CPU      4.73s WALL (      47 calls)

     Called by c_bands:
     init_us_2    :      0.09s CPU      0.08s WALL (      95 calls)
     cegterg      :     89.63s CPU     45.95s WALL (      47 calls)

     Called by sum_band:
     sum_band:bec :      0.00s CPU      0.00s WALL (      47 calls)
     addusdens    :      8.85s CPU      3.85s WALL (      47 calls)

     Called by *egterg:
     h_psi        :     65.42s CPU     32.04s WALL (     167 calls)
     s_psi        :      0.04s CPU      0.04s WALL (     167 calls)
     g_psi        :      0.02s CPU      0.02s WALL (     119 calls)
     cdiaghg      :     10.42s CPU      5.41s WALL (     166 calls)
     cegterg:over :      3.84s CPU      1.80s WALL (     119 calls)
     cegterg:upda :      1.62s CPU      0.60s WALL (     119 calls)
     cegterg:last :      0.26s CPU      0.26s WALL (      51 calls)
     cdiaghg:chol :      0.15s CPU      0.15s WALL (     166 calls)
     cdiaghg:inve :      0.11s CPU      0.11s WALL (     166 calls)
     cdiaghg:para :      0.12s CPU      0.12s WALL (     332 calls)

     Called by h_psi:
     h_psi:pot    :     65.37s CPU     31.98s WALL (     167 calls)
     h_psi:calbec :      0.76s CPU      0.13s WALL (     167 calls)
     vloc_psi     :     64.57s CPU     31.81s WALL (     167 calls)
     add_vuspsi   :      0.04s CPU      0.04s WALL (     167 calls)

     General routines
     calbec       :      0.81s CPU      0.18s WALL (     218 calls)
     fft          :    266.02s CPU    132.01s WALL (    3225 calls)
     ffts         :      1.68s CPU      0.67s WALL (      95 calls)
     fftw         :     71.68s CPU     34.48s WALL (   10660 calls)
     interpolate  :      8.57s CPU      4.50s WALL (      95 calls)
 
     Parallel routines
     fft_scatter  :    204.44s CPU    106.14s WALL (   13980 calls)

     PAW routines
     PAW_pot      :      3.77s CPU      1.74s WALL (      48 calls)
     PAW_symme    :      0.01s CPU      0.01s WALL (      95 calls)
 
     PWSCF        : 11m44.22s CPU     6m 3.87s WALL

 
   This run was terminated on:  14:55:45   9Feb2026            

=------------------------------------------------------------------------------=
   JOB DONE.
=------------------------------------------------------------------------------=
