
     Program PWSCF v.6.1 starts on  9Feb2026 at 13:47: 5 

     This program is part of the open-source Quantum ESPRESSO suite
     for quantum simulation of materials; please cite
         "P. Giannozzi et al., J. Phys.:Condens. Matter 21 395502 (2009);
          URL http://www.quantum-espresso.org", 
     in publications or presentations arising from this work. More details at
     http://www.quantum-espresso.org/quote

     Parallel version (MPI & OpenMP), running on     192 processor cores
     Number of MPI processes:                96
     Threads/MPI process:                     2
     R & G space division:  proc/nbgrp/npool/nimage =      96
     Reading input from espresso.pwi
Warning: card &IONS ignored
Warning: card    ION_DYNAMICS     = 'BFGS' ignored
Warning: card / ignored
Warning: card &CELL ignored
Warning: card / ignored
Warning: card &FCP ignored
Warning: card / ignored
Warning: card &RISM ignored
Warning: card / ignored

     Current dimensions of program PWSCF are:
     Max number of different atomic species (ntypx) = 10
     Max number of k-points (npk) =  40000
     Max angular momentum in pseudopotentials (lmaxx) =  3

     IMPORTANT: XC functional enforced from input :
     Exchange-correlation      = VDW-DF2 ( 1  4 13  0 2 0)
     Any further DFT definition will be discarded
     Please, verify this is what you really want

               file O.pbe-n-kjpaw_psl.1.0.0.UPF: wavefunction(s)  2S 2P renormalized
               file H.pbe-kjpaw_psl.1.0.0.UPF: wavefunction(s)  1S renormalized

     Subspace diagonalization in iterative solution of the eigenvalue problem:
     one sub-group per band group will be used
     ELPA distributed-memory algorithm (size of sub-group:  6*  6 procs)

 
     Parallelization info
     --------------------
     sticks:   dense  smooth     PW     G-vecs:    dense   smooth      PW
     Min         740     296     74               148294    37508    4688
     Max         741     297     76               148300    37516    4690
     Sum       71041   28417   7129             14236565  3601159  450127
 


     bravais-lattice index     =            0
     lattice parameter (alat)  =      37.7945  a.u.
     unit-cell volume          =   53986.6738 (a.u.)^3
     number of atoms/cell      =            3
     number of atomic types    =            2
     number of electrons       =         8.00
     number of Kohn-Sham states=           40
     kinetic-energy cutoff     =      62.4738  Ry
     charge density cutoff     =     624.7385  Ry
     convergence threshold     =      7.3E-12
     mixing beta               =       0.3333
     number of iterations used =           12  plain     mixing
     Exchange-correlation      = VDW-DF2 ( 1  4 13  0 2 0)

     Effective Screening Medium Method
     =================================
     Boundary Conditions: Vacuum-Slab-Vacuum
     total charge in unit cell        =   0.0000
     grid points for fit at edges     =        4 
 

     celldm(1)=  37.794522  celldm(2)=   0.000000  celldm(3)=   0.000000
     celldm(4)=   0.000000  celldm(5)=   0.000000  celldm(6)=   0.000000

     crystal axes: (cart. coord. in units of alat)
               a(1) = (   1.000000   0.000000   0.000000 )  
               a(2) = (   0.000000   1.000000   0.000000 )  
               a(3) = (   0.000000   0.000000   1.000000 )  

     reciprocal axes: (cart. coord. in units 2 pi/alat)
               b(1) = (  1.000000  0.000000  0.000000 )  
               b(2) = (  0.000000  1.000000  0.000000 )  
               b(3) = (  0.000000  0.000000  1.000000 )  


     PseudoPot. # 1 for  O read from file:
     /work/gf93/f93007/QE/pseudo/O.pbe-n-kjpaw_psl.1.0.0.UPF
     MD5 check sum: c61d840054b6bba219e553541e327118
     Pseudo is Projector augmented-wave + core cor, Zval =  6.0
     Generated using "atomic" code by A. Dal Corso  v.6.1 svn rev. 13369
     Shape of augmentation charge: PSQ
     Using radial grid of 1095 points,  4 beta functions with: 
                l(1) =   0
                l(2) =   0
                l(3) =   1
                l(4) =   1
     Q(r) pseudized with 0 coefficients 


     PseudoPot. # 2 for  H read from file:
     /work/gf93/f93007/QE/pseudo/H.pbe-kjpaw_psl.1.0.0.UPF
     MD5 check sum: 29603ce6b94be0cf73e39cbb1f958d8e
     Pseudo is Projector augmented-wave, Zval =  1.0
     Generated using "atomic" code by A. Dal Corso  v.6.1 svn rev. 13369
     Shape of augmentation charge: PSQ
     Using radial grid of  929 points,  2 beta functions with: 
                l(1) =   0
                l(2) =   0
     Q(r) pseudized with 0 coefficients 


     vdW kernel table read from file vdW_kernel_table
     MD5 check sum: 6d69797d2e858e93e031fb7d16d30e50

     atomic species   valence    mass     pseudopotential
        O              6.00    15.99900      O( 1.00)
        H              1.00     1.00800      H( 1.00)

      4 Sym. Ops. (no inversion) found


                                    s                        frac. trans.

      isym =  1     identity                                     

 cryst.   s( 1) = (     1          0          0      )
                  (     0          1          0      )
                  (     0          0          1      )

 cart.    s( 1) = (  1.0000000  0.0000000  0.0000000 )
                  (  0.0000000  1.0000000  0.0000000 )
                  (  0.0000000  0.0000000  1.0000000 )


      isym =  2     180 deg rotation - cart. axis [0,0,1]        

 cryst.   s( 2) = (    -1          0          0      )
                  (     0         -1          0      )
                  (     0          0          1      )

 cart.    s( 2) = ( -1.0000000  0.0000000  0.0000000 )
                  (  0.0000000 -1.0000000  0.0000000 )
                  (  0.0000000  0.0000000  1.0000000 )


      isym =  3     inv. 180 deg rotation - cart. axis [0,1,0]   

 cryst.   s( 3) = (     1          0          0      )
                  (     0         -1          0      )
                  (     0          0          1      )

 cart.    s( 3) = (  1.0000000  0.0000000  0.0000000 )
                  (  0.0000000 -1.0000000  0.0000000 )
                  (  0.0000000  0.0000000  1.0000000 )


      isym =  4     inv. 180 deg rotation - cart. axis [1,0,0]   

 cryst.   s( 4) = (    -1          0          0      )
                  (     0          1          0      )
                  (     0          0          1      )

 cart.    s( 4) = ( -1.0000000  0.0000000  0.0000000 )
                  (  0.0000000  1.0000000  0.0000000 )
                  (  0.0000000  0.0000000  1.0000000 )


   Cartesian axes

     site n.     atom                  positions (alat units)
         1           O   tau(   1) = (   0.5000000   0.5000000  -0.0003410  )
         2           H   tau(   2) = (   0.5000000   0.5384535   0.0297364  )
         3           H   tau(   3) = (   0.5000000   0.4615465   0.0297364  )

   Crystallographic axes

     site n.     atom                  positions (cryst. coord.)
         1           O   tau(   1) = (  0.5000000  0.5000000 -0.0003410  )
         2           H   tau(   2) = (  0.5000000  0.5384535  0.0297364  )
         3           H   tau(   3) = (  0.5000000  0.4615465  0.0297364  )

     number of k points=     1
                       cart. coord. in units 2pi/alat
        k(    1) = (   0.0000000   0.0000000   0.0000000), wk =   2.0000000

                       cryst. coord.
        k(    1) = (   0.0000000   0.0000000   0.0000000), wk =   2.0000000

     Dense  grid: 14236565 G-vectors     FFT dimensions: ( 320, 320, 320)

     Smooth grid:  3601159 G-vectors     FFT dimensions: ( 192, 192, 192)

     Estimated max dynamical RAM per process >     488.77MB

     Estimated total allocated dynamical RAM >   46922.27MB

     Initial potential from superposition of free atoms
     Check: negative starting charge=   -0.001152

     starting charge    7.99998, renormalised to    8.00000

     negative rho (up, down):  1.152E-03 0.000E+00


     %%%%%%%%%%%%%%%%%%%%%%%%%%%%%%%%%%%%%%%%%%%%%%%%%%%%%%%%%%%%%%%%%%%%%%%%
     %                                                                      %
     % You are using vdW-DF, which was implemented by the Thonhauser group. %
     % Please cite the following two papers that made this development      %
     % possible and the two reviews that describe the various versions:     %
     %                                                                      %
     %   T. Thonhauser et al., PRL 115, 136402 (2015).                      %
     %   T. Thonhauser et al., PRB 76, 125112 (2007).                       %
     %   K. Berland et al., Rep. Prog. Phys. 78, 066501 (2015).             %
     %   D.C. Langreth et al., J. Phys.: Condens. Matter 21, 084203 (2009). %
     %                                                                      %
     %                                                                      %
     % If you are calculating the stress with vdW-DF, please also cite:     %
     %                                                                      %
     %   R. Sabatini et al., J. Phys.: Condens. Matter 24, 424209 (2012).   %
     %                                                                      %
     %%%%%%%%%%%%%%%%%%%%%%%%%%%%%%%%%%%%%%%%%%%%%%%%%%%%%%%%%%%%%%%%%%%%%%%%


     Carrying out vdW-DF run using the following parameters:
     Nqs    =  20  Npoints =  1024  r_max =  100.000
     q_mesh =  0.00001000  0.04494208  0.09755937  0.15916263
               0.23128650  0.31572767  0.41458969  0.53033537
               0.66584808  0.82450364  1.01025438  1.22772762
               1.48234092  1.78043706  2.12944203  2.53805004
               3.01644009  3.57652955  4.23227104  5.00000000


     -----------------------------------------------
     Non-local corr. energy    =       0.13356825 Ry
     -----------------------------------------------

     Starting wfc are    6 randomized atomic wfcs +   34 random wfc
     Checking if some PAW data can be deallocated... 
       node    0, deallocated PAW data for type:  2
       node    1, deallocated PAW data for type:  2
       node    2, deallocated PAW data for type:  2
       node    3, deallocated PAW data for type:  2
       node    4, deallocated PAW data for type:  2
       node    5, deallocated PAW data for type:  2
       node    6, deallocated PAW data for type:  2
       node    7, deallocated PAW data for type:  2
       node    8, deallocated PAW data for type:  2
       node    9, deallocated PAW data for type:  2
       node   10, deallocated PAW data for type:  2
       node   11, deallocated PAW data for type:  2
       node   12, deallocated PAW data for type:  2
       node   13, deallocated PAW data for type:  2
       node   14, deallocated PAW data for type:  2
       node   15, deallocated PAW data for type:  2
       node   16, deallocated PAW data for type:  2
       node   17, deallocated PAW data for type:  2
       node   18, deallocated PAW data for type:  2
       node   19, deallocated PAW data for type:  2
       node   20, deallocated PAW data for type:  2
       node   21, deallocated PAW data for type:  2
       node   22, deallocated PAW data for type:  2
       node   23, deallocated PAW data for type:  2
       node   24, deallocated PAW data for type:  2
       node   25, deallocated PAW data for type:  2
       node   26, deallocated PAW data for type:  2
       node   27, deallocated PAW data for type:  2
       node   28, deallocated PAW data for type:  2
       node   29, deallocated PAW data for type:  2
       node   30, deallocated PAW data for type:  2
       node   31, deallocated PAW data for type:  2
       node   32, deallocated PAW data for type:  1
       node   33, deallocated PAW data for type:  1
       node   34, deallocated PAW data for type:  1
       node   35, deallocated PAW data for type:  1
       node   36, deallocated PAW data for type:  1
       node   37, deallocated PAW data for type:  1
       node   38, deallocated PAW data for type:  1
       node   39, deallocated PAW data for type:  1
       node   40, deallocated PAW data for type:  1
       node   41, deallocated PAW data for type:  1
       node   42, deallocated PAW data for type:  1
       node   43, deallocated PAW data for type:  1
       node   44, deallocated PAW data for type:  1
       node   45, deallocated PAW data for type:  1
       node   46, deallocated PAW data for type:  1
       node   47, deallocated PAW data for type:  1
       node   48, deallocated PAW data for type:  1
       node   49, deallocated PAW data for type:  1
       node   50, deallocated PAW data for type:  1
       node   51, deallocated PAW data for type:  1
       node   52, deallocated PAW data for type:  1
       node   53, deallocated PAW data for type:  1
       node   54, deallocated PAW data for type:  1
       node   55, deallocated PAW data for type:  1
       node   56, deallocated PAW data for type:  1
       node   57, deallocated PAW data for type:  1
       node   58, deallocated PAW data for type:  1
       node   59, deallocated PAW data for type:  1
       node   60, deallocated PAW data for type:  1
       node   61, deallocated PAW data for type:  1
       node   62, deallocated PAW data for type:  1
       node   63, deallocated PAW data for type:  1
       node   64, deallocated PAW data for type:  1
       node   65, deallocated PAW data for type:  1
       node   66, deallocated PAW data for type:  1
       node   67, deallocated PAW data for type:  1
       node   68, deallocated PAW data for type:  1
       node   69, deallocated PAW data for type:  1
       node   70, deallocated PAW data for type:  1
       node   71, deallocated PAW data for type:  1
       node   72, deallocated PAW data for type:  1
       node   73, deallocated PAW data for type:  1
       node   74, deallocated PAW data for type:  1
       node   75, deallocated PAW data for type:  1
       node   76, deallocated PAW data for type:  1
       node   77, deallocated PAW data for type:  1
       node   78, deallocated PAW data for type:  1
       node   79, deallocated PAW data for type:  1
       node   80, deallocated PAW data for type:  1
       node   81, deallocated PAW data for type:  1
       node   82, deallocated PAW data for type:  1
       node   83, deallocated PAW data for type:  1
       node   84, deallocated PAW data for type:  1
       node   85, deallocated PAW data for type:  1
       node   86, deallocated PAW data for type:  1
       node   87, deallocated PAW data for type:  1
       node   88, deallocated PAW data for type:  1
       node   89, deallocated PAW data for type:  1
       node   90, deallocated PAW data for type:  1
       node   91, deallocated PAW data for type:  1
       node   92, deallocated PAW data for type:  1
       node   93, deallocated PAW data for type:  1
       node   94, deallocated PAW data for type:  1
       node   95, deallocated PAW data for type:  1

     total cpu time spent up to now is       25.8 secs

     per-process dynamical memory:   229.4 Mb

     Self-consistent Calculation

     iteration #  1     ecut=    62.47 Ry     beta=0.33
     Davidson diagonalization with overlap
     ethr =  1.00E-02,  avg # of iterations = 12.0

     negative rho (up, down):  1.364E-03 0.000E+00


     -----------------------------------------------
     Non-local corr. energy    =       0.13507761 Ry
     -----------------------------------------------


     total cpu time spent up to now is       35.2 secs

     total energy              =     -44.94321659 Ry
     Harris-Foulkes estimate   =     -45.19496871 Ry
     estimated scf accuracy    <       0.53451836 Ry

     iteration #  2     ecut=    62.47 Ry     beta=0.33
     Davidson diagonalization with overlap
     ethr =  6.68E-03,  avg # of iterations =  1.0

     negative rho (up, down):  9.092E-04 0.000E+00


     -----------------------------------------------
     Non-local corr. energy    =       0.13560735 Ry
     -----------------------------------------------


     total cpu time spent up to now is       41.8 secs

     total energy              =     -44.98868420 Ry
     Harris-Foulkes estimate   =     -45.00643659 Ry
     estimated scf accuracy    <       0.04527045 Ry

     iteration #  3     ecut=    62.47 Ry     beta=0.33
     Davidson diagonalization with overlap
     ethr =  5.66E-04,  avg # of iterations =  6.0

     negative rho (up, down):  1.531E-03 0.000E+00


     -----------------------------------------------
     Non-local corr. energy    =       0.13503733 Ry
     -----------------------------------------------


     total cpu time spent up to now is       49.7 secs

     total energy              =     -45.00762237 Ry
     Harris-Foulkes estimate   =     -45.03592444 Ry
     estimated scf accuracy    <       0.04345429 Ry

     iteration #  4     ecut=    62.47 Ry     beta=0.33
     Davidson diagonalization with overlap
     ethr =  5.43E-04,  avg # of iterations =  3.0

     negative rho (up, down):  1.556E-03 0.000E+00


     -----------------------------------------------
     Non-local corr. energy    =       0.13629508 Ry
     -----------------------------------------------


     total cpu time spent up to now is       56.5 secs

     total energy              =     -45.00964542 Ry
     Harris-Foulkes estimate   =     -45.04437943 Ry
     estimated scf accuracy    <       0.06843095 Ry

     iteration #  5     ecut=    62.47 Ry     beta=0.33
     Davidson diagonalization with overlap
     ethr =  5.43E-04,  avg # of iterations =  5.0

     negative rho (up, down):  1.534E-03 0.000E+00


     -----------------------------------------------
     Non-local corr. energy    =       0.13628680 Ry
     -----------------------------------------------


     total cpu time spent up to now is       63.5 secs

     total energy              =     -45.02065436 Ry
     Harris-Foulkes estimate   =     -45.02065957 Ry
     estimated scf accuracy    <       0.00091455 Ry

     iteration #  6     ecut=    62.47 Ry     beta=0.33
     Davidson diagonalization with overlap
     ethr =  1.14E-05,  avg # of iterations = 17.0

     negative rho (up, down):  1.531E-03 0.000E+00


     -----------------------------------------------
     Non-local corr. energy    =       0.13621182 Ry
     -----------------------------------------------


     total cpu time spent up to now is       73.0 secs

     total energy              =     -45.02456963 Ry
     Harris-Foulkes estimate   =     -45.02477027 Ry
     estimated scf accuracy    <       0.00076044 Ry

     iteration #  7     ecut=    62.47 Ry     beta=0.33
     Davidson diagonalization with overlap
     ethr =  9.51E-06,  avg # of iterations =  1.0

     negative rho (up, down):  1.628E-03 0.000E+00


     -----------------------------------------------
     Non-local corr. energy    =       0.13611182 Ry
     -----------------------------------------------


     total cpu time spent up to now is       79.6 secs

     total energy              =     -45.02439014 Ry
     Harris-Foulkes estimate   =     -45.02459288 Ry
     estimated scf accuracy    <       0.00028454 Ry

     iteration #  8     ecut=    62.47 Ry     beta=0.33
     Davidson diagonalization with overlap
     c_bands:  1 eigenvalues not converged
     ethr =  3.56E-06,  avg # of iterations = 20.0

     negative rho (up, down):  1.638E-03 0.000E+00


     -----------------------------------------------
     Non-local corr. energy    =       0.13611703 Ry
     -----------------------------------------------


     total cpu time spent up to now is       88.0 secs

     total energy              =     -45.02456708 Ry
     Harris-Foulkes estimate   =     -45.02462814 Ry
     estimated scf accuracy    <       0.00030935 Ry

     iteration #  9     ecut=    62.47 Ry     beta=0.33
     Davidson diagonalization with overlap
     ethr =  3.56E-06,  avg # of iterations =  1.0

     negative rho (up, down):  1.640E-03 0.000E+00


     -----------------------------------------------
     Non-local corr. energy    =       0.13611447 Ry
     -----------------------------------------------


     total cpu time spent up to now is       94.6 secs

     total energy              =     -45.02456459 Ry
     Harris-Foulkes estimate   =     -45.02457113 Ry
     estimated scf accuracy    <       0.00017960 Ry

     iteration # 10     ecut=    62.47 Ry     beta=0.33
     Davidson diagonalization with overlap
     ethr =  2.24E-06,  avg # of iterations =  1.0

     negative rho (up, down):  1.639E-03 0.000E+00


     -----------------------------------------------
     Non-local corr. energy    =       0.13611588 Ry
     -----------------------------------------------


     total cpu time spent up to now is      101.2 secs

     total energy              =     -45.02455769 Ry
     Harris-Foulkes estimate   =     -45.02456714 Ry
     estimated scf accuracy    <       0.00014587 Ry

     iteration # 11     ecut=    62.47 Ry     beta=0.33
     Davidson diagonalization with overlap
     ethr =  1.82E-06,  avg # of iterations =  1.0

     negative rho (up, down):  1.637E-03 0.000E+00


     -----------------------------------------------
     Non-local corr. energy    =       0.13611637 Ry
     -----------------------------------------------


     total cpu time spent up to now is      107.7 secs

     total energy              =     -45.02455331 Ry
     Harris-Foulkes estimate   =     -45.02455951 Ry
     estimated scf accuracy    <       0.00011377 Ry

     iteration # 12     ecut=    62.47 Ry     beta=0.33
     Davidson diagonalization with overlap
     ethr =  1.42E-06,  avg # of iterations =  1.0

     negative rho (up, down):  1.629E-03 0.000E+00


     -----------------------------------------------
     Non-local corr. energy    =       0.13612321 Ry
     -----------------------------------------------


     total cpu time spent up to now is      114.3 secs

     total energy              =     -45.02454837 Ry
     Harris-Foulkes estimate   =     -45.02455858 Ry
     estimated scf accuracy    <       0.00005759 Ry

     iteration # 13     ecut=    62.47 Ry     beta=0.33
     Davidson diagonalization with overlap
     ethr =  7.20E-07,  avg # of iterations =  1.0

     negative rho (up, down):  1.627E-03 0.000E+00


     -----------------------------------------------
     Non-local corr. energy    =       0.13612444 Ry
     -----------------------------------------------


     total cpu time spent up to now is      120.9 secs

     total energy              =     -45.02454846 Ry
     Harris-Foulkes estimate   =     -45.02454974 Ry
     estimated scf accuracy    <       0.00002939 Ry

     iteration # 14     ecut=    62.47 Ry     beta=0.33
     Davidson diagonalization with overlap
     ethr =  3.67E-07,  avg # of iterations =  1.0

     negative rho (up, down):  1.627E-03 0.000E+00


     -----------------------------------------------
     Non-local corr. energy    =       0.13612353 Ry
     -----------------------------------------------


     total cpu time spent up to now is      127.5 secs

     total energy              =     -45.02455112 Ry
     Harris-Foulkes estimate   =     -45.02454947 Ry
     estimated scf accuracy    <       0.00002087 Ry

     iteration # 15     ecut=    62.47 Ry     beta=0.33
     Davidson diagonalization with overlap
     ethr =  2.61E-07,  avg # of iterations =  1.0

     negative rho (up, down):  1.627E-03 0.000E+00


     -----------------------------------------------
     Non-local corr. energy    =       0.13612335 Ry
     -----------------------------------------------


     total cpu time spent up to now is      134.1 secs

     total energy              =     -45.02455168 Ry
     Harris-Foulkes estimate   =     -45.02455132 Ry
     estimated scf accuracy    <       0.00002353 Ry

     iteration # 16     ecut=    62.47 Ry     beta=0.33
     Davidson diagonalization with overlap
     ethr =  2.61E-07,  avg # of iterations =  1.0

     negative rho (up, down):  1.623E-03 0.000E+00


     -----------------------------------------------
     Non-local corr. energy    =       0.13612647 Ry
     -----------------------------------------------


     total cpu time spent up to now is      140.6 secs

     total energy              =     -45.02454960 Ry
     Harris-Foulkes estimate   =     -45.02455181 Ry
     estimated scf accuracy    <       0.00002390 Ry

     iteration # 17     ecut=    62.47 Ry     beta=0.33
     Davidson diagonalization with overlap
     ethr =  2.61E-07,  avg # of iterations =  1.0

     negative rho (up, down):  1.626E-03 0.000E+00


     -----------------------------------------------
     Non-local corr. energy    =       0.13612491 Ry
     -----------------------------------------------


     total cpu time spent up to now is      147.2 secs

     total energy              =     -45.02455050 Ry
     Harris-Foulkes estimate   =     -45.02454970 Ry
     estimated scf accuracy    <       0.00001878 Ry

     iteration # 18     ecut=    62.47 Ry     beta=0.33
     Davidson diagonalization with overlap
     ethr =  2.35E-07,  avg # of iterations =  1.0

     negative rho (up, down):  1.567E-03 0.000E+00


     -----------------------------------------------
     Non-local corr. energy    =       0.13614753 Ry
     -----------------------------------------------


     total cpu time spent up to now is      153.8 secs

     total energy              =     -45.02454060 Ry
     Harris-Foulkes estimate   =     -45.02455053 Ry
     estimated scf accuracy    <       0.00002048 Ry

     iteration # 19     ecut=    62.47 Ry     beta=0.33
     Davidson diagonalization with overlap
     ethr =  2.35E-07,  avg # of iterations =  3.0

     negative rho (up, down):  1.608E-03 0.000E+00


     -----------------------------------------------
     Non-local corr. energy    =       0.13612417 Ry
     -----------------------------------------------


     total cpu time spent up to now is      160.6 secs

     total energy              =     -45.02456900 Ry
     Harris-Foulkes estimate   =     -45.02454505 Ry
     estimated scf accuracy    <       0.00000187 Ry

     iteration # 20     ecut=    62.47 Ry     beta=0.33
     Davidson diagonalization with overlap
     ethr =  2.34E-08,  avg # of iterations =  4.0

     negative rho (up, down):  1.595E-03 0.000E+00


     -----------------------------------------------
     Non-local corr. energy    =       0.13613075 Ry
     -----------------------------------------------


     total cpu time spent up to now is      167.5 secs

     total energy              =     -45.02457282 Ry
     Harris-Foulkes estimate   =     -45.02461595 Ry
     estimated scf accuracy    <       0.00026402 Ry

     iteration # 21     ecut=    62.47 Ry     beta=0.33
     Davidson diagonalization with overlap
     ethr =  2.34E-08,  avg # of iterations =  3.0

     negative rho (up, down):  1.612E-03 0.000E+00


     -----------------------------------------------
     Non-local corr. energy    =       0.13612235 Ry
     -----------------------------------------------


     total cpu time spent up to now is      174.3 secs

     total energy              =     -45.02459403 Ry
     Harris-Foulkes estimate   =     -45.02457800 Ry
     estimated scf accuracy    <       0.00012047 Ry

     iteration # 22     ecut=    62.47 Ry     beta=0.33
     Davidson diagonalization with overlap
     ethr =  2.34E-08,  avg # of iterations =  3.0

     negative rho (up, down):  1.601E-03 0.000E+00


     -----------------------------------------------
     Non-local corr. energy    =       0.13612953 Ry
     -----------------------------------------------


     total cpu time spent up to now is      181.1 secs

     total energy              =     -45.02457796 Ry
     Harris-Foulkes estimate   =     -45.02459514 Ry
     estimated scf accuracy    <       0.00017652 Ry

     iteration # 23     ecut=    62.47 Ry     beta=0.33
     Davidson diagonalization with overlap
     ethr =  2.34E-08,  avg # of iterations =  3.0

     negative rho (up, down):  1.604E-03 0.000E+00


     -----------------------------------------------
     Non-local corr. energy    =       0.13612707 Ry
     -----------------------------------------------


     total cpu time spent up to now is      187.9 secs

     total energy              =     -45.02458127 Ry
     Harris-Foulkes estimate   =     -45.02457890 Ry
     estimated scf accuracy    <       0.00012509 Ry

     iteration # 24     ecut=    62.47 Ry     beta=0.33
     Davidson diagonalization with overlap
     ethr =  2.34E-08,  avg # of iterations =  1.0

     negative rho (up, down):  1.606E-03 0.000E+00


     -----------------------------------------------
     Non-local corr. energy    =       0.13612350 Ry
     -----------------------------------------------


     total cpu time spent up to now is      194.5 secs

     total energy              =     -45.02457457 Ry
     Harris-Foulkes estimate   =     -45.02458128 Ry
     estimated scf accuracy    <       0.00012929 Ry

     iteration # 25     ecut=    62.47 Ry     beta=0.33
     Davidson diagonalization with overlap
     ethr =  2.34E-08,  avg # of iterations =  1.0

     negative rho (up, down):  1.597E-03 0.000E+00


     -----------------------------------------------
     Non-local corr. energy    =       0.13612599 Ry
     -----------------------------------------------


     total cpu time spent up to now is      201.1 secs

     total energy              =     -45.02456022 Ry
     Harris-Foulkes estimate   =     -45.02457470 Ry
     estimated scf accuracy    <       0.00011165 Ry

     iteration # 26     ecut=    62.47 Ry     beta=0.33
     Davidson diagonalization with overlap
     ethr =  2.34E-08,  avg # of iterations =  3.0

     negative rho (up, down):  1.588E-03 0.000E+00


     -----------------------------------------------
     Non-local corr. energy    =       0.13613161 Ry
     -----------------------------------------------


     total cpu time spent up to now is      207.9 secs

     total energy              =     -45.02455201 Ry
     Harris-Foulkes estimate   =     -45.02456218 Ry
     estimated scf accuracy    <       0.00005625 Ry

     iteration # 27     ecut=    62.47 Ry     beta=0.33
     Davidson diagonalization with overlap
     ethr =  2.34E-08,  avg # of iterations =  3.0

     negative rho (up, down):  1.581E-03 0.000E+00


     -----------------------------------------------
     Non-local corr. energy    =       0.13613454 Ry
     -----------------------------------------------


     total cpu time spent up to now is      214.7 secs

     total energy              =     -45.02454484 Ry
     Harris-Foulkes estimate   =     -45.02455314 Ry
     estimated scf accuracy    <       0.00002661 Ry

     iteration # 28     ecut=    62.47 Ry     beta=0.33
     Davidson diagonalization with overlap
     ethr =  2.34E-08,  avg # of iterations =  3.0

     negative rho (up, down):  1.584E-03 0.000E+00


     -----------------------------------------------
     Non-local corr. energy    =       0.13612662 Ry
     -----------------------------------------------


     total cpu time spent up to now is      221.5 secs

     total energy              =     -45.02454819 Ry
     Harris-Foulkes estimate   =     -45.02454795 Ry
     estimated scf accuracy    <       0.00000222 Ry

     iteration # 29     ecut=    62.47 Ry     beta=0.33
     Davidson diagonalization with overlap
     ethr =  2.34E-08,  avg # of iterations =  1.0

     negative rho (up, down):  1.571E-03 0.000E+00


     -----------------------------------------------
     Non-local corr. energy    =       0.13613317 Ry
     -----------------------------------------------


     total cpu time spent up to now is      228.1 secs

     total energy              =     -45.02454759 Ry
     Harris-Foulkes estimate   =     -45.02454825 Ry
     estimated scf accuracy    <       0.00000163 Ry

     iteration # 30     ecut=    62.47 Ry     beta=0.33
     Davidson diagonalization with overlap
     ethr =  2.04E-08,  avg # of iterations =  1.0

     negative rho (up, down):  1.567E-03 0.000E+00


     -----------------------------------------------
     Non-local corr. energy    =       0.13613567 Ry
     -----------------------------------------------


     total cpu time spent up to now is      234.7 secs

     total energy              =     -45.02454735 Ry
     Harris-Foulkes estimate   =     -45.02454768 Ry
     estimated scf accuracy    <       0.00000055 Ry

     iteration # 31     ecut=    62.47 Ry     beta=0.33
     Davidson diagonalization with overlap
     ethr =  6.88E-09,  avg # of iterations =  1.0

     negative rho (up, down):  1.568E-03 0.000E+00


     -----------------------------------------------
     Non-local corr. energy    =       0.13613434 Ry
     -----------------------------------------------


     total cpu time spent up to now is      241.3 secs

     total energy              =     -45.02454737 Ry
     Harris-Foulkes estimate   =     -45.02454739 Ry
     estimated scf accuracy    <       0.00000037 Ry

     iteration # 32     ecut=    62.47 Ry     beta=0.33
     Davidson diagonalization with overlap
     ethr =  4.62E-09,  avg # of iterations =  1.0

     negative rho (up, down):  1.569E-03 0.000E+00


     -----------------------------------------------
     Non-local corr. energy    =       0.13613367 Ry
     -----------------------------------------------


     total cpu time spent up to now is      247.9 secs

     total energy              =     -45.02454741 Ry
     Harris-Foulkes estimate   =     -45.02454738 Ry
     estimated scf accuracy    <       0.00000021 Ry

     iteration # 33     ecut=    62.47 Ry     beta=0.33
     Davidson diagonalization with overlap
     ethr =  2.67E-09,  avg # of iterations =  1.0

     negative rho (up, down):  1.567E-03 0.000E+00


     -----------------------------------------------
     Non-local corr. energy    =       0.13613301 Ry
     -----------------------------------------------


     total cpu time spent up to now is      254.5 secs

     total energy              =     -45.02454746 Ry
     Harris-Foulkes estimate   =     -45.02454744 Ry
     estimated scf accuracy    <       0.00000054 Ry

     iteration # 34     ecut=    62.47 Ry     beta=0.33
     Davidson diagonalization with overlap
     ethr =  2.67E-09,  avg # of iterations =  1.0

     negative rho (up, down):  1.567E-03 0.000E+00


     -----------------------------------------------
     Non-local corr. energy    =       0.13613276 Ry
     -----------------------------------------------


     total cpu time spent up to now is      261.1 secs

     total energy              =     -45.02454745 Ry
     Harris-Foulkes estimate   =     -45.02454747 Ry
     estimated scf accuracy    <       0.00000030 Ry

     iteration # 35     ecut=    62.47 Ry     beta=0.33
     Davidson diagonalization with overlap
     ethr =  2.67E-09,  avg # of iterations =  2.0

     negative rho (up, down):  1.566E-03 0.000E+00


     -----------------------------------------------
     Non-local corr. energy    =       0.13613279 Ry
     -----------------------------------------------


     total cpu time spent up to now is      267.7 secs

     total energy              =     -45.02454745 Ry
     Harris-Foulkes estimate   =     -45.02454748 Ry
     estimated scf accuracy    <       0.00000013 Ry

     iteration # 36     ecut=    62.47 Ry     beta=0.33
     Davidson diagonalization with overlap
     ethr =  1.60E-09,  avg # of iterations =  3.0

     negative rho (up, down):  1.568E-03 0.000E+00


     -----------------------------------------------
     Non-local corr. energy    =       0.13613274 Ry
     -----------------------------------------------


     total cpu time spent up to now is      274.5 secs

     total energy              =     -45.02454744 Ry
     Harris-Foulkes estimate   =     -45.02454747 Ry
     estimated scf accuracy    <       0.00000004 Ry

     iteration # 37     ecut=    62.47 Ry     beta=0.33
     Davidson diagonalization with overlap
     ethr =  4.50E-10,  avg # of iterations =  1.0

     negative rho (up, down):  1.567E-03 0.000E+00


     -----------------------------------------------
     Non-local corr. energy    =       0.13613267 Ry
     -----------------------------------------------


     total cpu time spent up to now is      281.1 secs

     total energy              =     -45.02454745 Ry
     Harris-Foulkes estimate   =     -45.02454744 Ry
     estimated scf accuracy    <       0.00000005 Ry

     iteration # 38     ecut=    62.47 Ry     beta=0.33
     Davidson diagonalization with overlap
     ethr =  4.50E-10,  avg # of iterations =  3.0

     negative rho (up, down):  1.567E-03 0.000E+00


     -----------------------------------------------
     Non-local corr. energy    =       0.13613276 Ry
     -----------------------------------------------


     total cpu time spent up to now is      287.9 secs

     total energy              =     -45.02454747 Ry
     Harris-Foulkes estimate   =     -45.02454746 Ry
     estimated scf accuracy    <          2.8E-09 Ry

     iteration # 39     ecut=    62.47 Ry     beta=0.33
     Davidson diagonalization with overlap
     ethr =  3.53E-11,  avg # of iterations =  4.0

     negative rho (up, down):  1.567E-03 0.000E+00


     -----------------------------------------------
     Non-local corr. energy    =       0.13613253 Ry
     -----------------------------------------------


     total cpu time spent up to now is      294.7 secs

     total energy              =     -45.02454750 Ry
     Harris-Foulkes estimate   =     -45.02454747 Ry
     estimated scf accuracy    <          8.2E-10 Ry

     iteration # 40     ecut=    62.47 Ry     beta=0.33
     Davidson diagonalization with overlap
     ethr =  1.03E-11,  avg # of iterations =  3.0

     negative rho (up, down):  1.567E-03 0.000E+00


     -----------------------------------------------
     Non-local corr. energy    =       0.13613260 Ry
     -----------------------------------------------


     total cpu time spent up to now is      301.6 secs

     total energy              =     -45.02454748 Ry
     Harris-Foulkes estimate   =     -45.02454750 Ry
     estimated scf accuracy    <       0.00000001 Ry

     iteration # 41     ecut=    62.47 Ry     beta=0.33
     Davidson diagonalization with overlap
     ethr =  1.03E-11,  avg # of iterations =  4.0

     negative rho (up, down):  1.567E-03 0.000E+00


     -----------------------------------------------
     Non-local corr. energy    =       0.13613268 Ry
     -----------------------------------------------


     total cpu time spent up to now is      308.5 secs

     total energy              =     -45.02454748 Ry
     Harris-Foulkes estimate   =     -45.02454748 Ry
     estimated scf accuracy    <          3.8E-09 Ry

     iteration # 42     ecut=    62.47 Ry     beta=0.33
     Davidson diagonalization with overlap
     ethr =  1.03E-11,  avg # of iterations =  3.0

     negative rho (up, down):  1.567E-03 0.000E+00


     -----------------------------------------------
     Non-local corr. energy    =       0.13613265 Ry
     -----------------------------------------------


     total cpu time spent up to now is      315.3 secs

     total energy              =     -45.02454748 Ry
     Harris-Foulkes estimate   =     -45.02454748 Ry
     estimated scf accuracy    <          2.9E-09 Ry

     iteration # 43     ecut=    62.47 Ry     beta=0.33
     Davidson diagonalization with overlap
     ethr =  1.03E-11,  avg # of iterations =  3.0

     negative rho (up, down):  1.567E-03 0.000E+00


     -----------------------------------------------
     Non-local corr. energy    =       0.13613269 Ry
     -----------------------------------------------


     total cpu time spent up to now is      322.1 secs

     total energy              =     -45.02454748 Ry
     Harris-Foulkes estimate   =     -45.02454748 Ry
     estimated scf accuracy    <          8.9E-10 Ry

     iteration # 44     ecut=    62.47 Ry     beta=0.33
     Davidson diagonalization with overlap
     ethr =  1.03E-11,  avg # of iterations =  1.0

     negative rho (up, down):  1.567E-03 0.000E+00


     -----------------------------------------------
     Non-local corr. energy    =       0.13613269 Ry
     -----------------------------------------------


     total cpu time spent up to now is      328.7 secs

     total energy              =     -45.02454748 Ry
     Harris-Foulkes estimate   =     -45.02454748 Ry
     estimated scf accuracy    <          6.3E-10 Ry

     iteration # 45     ecut=    62.47 Ry     beta=0.33
     Davidson diagonalization with overlap
     ethr =  7.83E-12,  avg # of iterations =  1.0

     negative rho (up, down):  1.567E-03 0.000E+00


     -----------------------------------------------
     Non-local corr. energy    =       0.13613270 Ry
     -----------------------------------------------


     total cpu time spent up to now is      335.3 secs

     total energy              =     -45.02454748 Ry
     Harris-Foulkes estimate   =     -45.02454748 Ry
     estimated scf accuracy    <          7.2E-10 Ry

     iteration # 46     ecut=    62.47 Ry     beta=0.33
     Davidson diagonalization with overlap
     ethr =  7.83E-12,  avg # of iterations =  1.0

     negative rho (up, down):  1.567E-03 0.000E+00


     -----------------------------------------------
     Non-local corr. energy    =       0.13613270 Ry
     -----------------------------------------------


     total cpu time spent up to now is      341.9 secs

     total energy              =     -45.02454747 Ry
     Harris-Foulkes estimate   =     -45.02454748 Ry
     estimated scf accuracy    <          6.1E-10 Ry

     iteration # 47     ecut=    62.47 Ry     beta=0.33
     Davidson diagonalization with overlap
     ethr =  7.61E-12,  avg # of iterations =  3.0

     negative rho (up, down):  1.567E-03 0.000E+00


     -----------------------------------------------
     Non-local corr. energy    =       0.13613279 Ry
     -----------------------------------------------


     total cpu time spent up to now is      348.6 secs

     total energy              =     -45.02454748 Ry
     Harris-Foulkes estimate   =     -45.02454747 Ry
     estimated scf accuracy    <          1.1E-09 Ry

     iteration # 48     ecut=    62.47 Ry     beta=0.33
     Davidson diagonalization with overlap
     ethr =  7.61E-12,  avg # of iterations =  3.0

     negative rho (up, down):  1.567E-03 0.000E+00


     -----------------------------------------------
     Non-local corr. energy    =       0.13613277 Ry
     -----------------------------------------------


     total cpu time spent up to now is      355.4 secs

     total energy              =     -45.02454749 Ry
     Harris-Foulkes estimate   =     -45.02454748 Ry
     estimated scf accuracy    <          1.1E-10 Ry

     iteration # 49     ecut=    62.47 Ry     beta=0.33
     Davidson diagonalization with overlap
     ethr =  1.37E-12,  avg # of iterations =  3.0

     negative rho (up, down):  1.567E-03 0.000E+00


     -----------------------------------------------
     Non-local corr. energy    =       0.13613278 Ry
     -----------------------------------------------


     total cpu time spent up to now is      362.2 secs

     total energy              =     -45.02454749 Ry
     Harris-Foulkes estimate   =     -45.02454749 Ry
     estimated scf accuracy    <          1.8E-10 Ry

     iteration # 50     ecut=    62.47 Ry     beta=0.33
     Davidson diagonalization with overlap
     ethr =  1.37E-12,  avg # of iterations =  1.0

     negative rho (up, down):  1.567E-03 0.000E+00


     -----------------------------------------------
     Non-local corr. energy    =       0.13613280 Ry
     -----------------------------------------------


     total cpu time spent up to now is      368.8 secs

     total energy              =     -45.02454748 Ry
     Harris-Foulkes estimate   =     -45.02454749 Ry
     estimated scf accuracy    <          5.8E-11 Ry

     iteration # 51     ecut=    62.47 Ry     beta=0.33
     Davidson diagonalization with overlap
     ethr =  7.22E-13,  avg # of iterations =  3.0

     negative rho (up, down):  1.567E-03 0.000E+00


     -----------------------------------------------
     Non-local corr. energy    =       0.13613278 Ry
     -----------------------------------------------


     total cpu time spent up to now is      375.6 secs

     total energy              =     -45.02454748 Ry
     Harris-Foulkes estimate   =     -45.02454748 Ry
     estimated scf accuracy    <          2.5E-10 Ry

     iteration # 52     ecut=    62.47 Ry     beta=0.33
     Davidson diagonalization with overlap
     ethr =  7.22E-13,  avg # of iterations =  3.0

     negative rho (up, down):  1.567E-03 0.000E+00


     -----------------------------------------------
     Non-local corr. energy    =       0.13613279 Ry
     -----------------------------------------------


     total cpu time spent up to now is      382.4 secs

     total energy              =     -45.02454748 Ry
     Harris-Foulkes estimate   =     -45.02454748 Ry
     estimated scf accuracy    <          1.3E-11 Ry

     iteration # 53     ecut=    62.47 Ry     beta=0.33
     Davidson diagonalization with overlap
     ethr =  1.63E-13,  avg # of iterations =  4.0

     negative rho (up, down):  1.567E-03 0.000E+00


     -----------------------------------------------
     Non-local corr. energy    =       0.13613278 Ry
     -----------------------------------------------


     total cpu time spent up to now is      389.1 secs

     End of self-consistent calculation

          k = 0.0000 0.0000 0.0000 (450127 PWs)   bands (ev):

   -25.5706 -13.4463  -9.7297  -7.6492  -1.4946  -0.1540  -0.0120   0.1329
     0.1427   0.1858   0.2115   0.3013   0.3105   0.4472   0.4673   0.5453
     0.5465   0.5494   0.5598   0.5768   0.5873   0.5883   0.5886   0.7521
     0.7761   0.8638   0.8802   0.9201   0.9279   0.9423   0.9555   1.0733
     1.1113   1.2052   1.2245   1.2631   1.2927   1.3824   1.4160   1.4766

     occupation numbers 
     1.0000   1.0000   1.0000   1.0000   0.0000   0.0000   0.0000   0.0000
     0.0000   0.0000   0.0000   0.0000   0.0000   0.0000   0.0000   0.0000
     0.0000   0.0000   0.0000   0.0000   0.0000   0.0000   0.0000   0.0000
     0.0000   0.0000   0.0000   0.0000   0.0000   0.0000   0.0000   0.0000
     0.0000   0.0000   0.0000   0.0000   0.0000   0.0000   0.0000   0.0000

     highest occupied, lowest unoccupied level (ev):    -7.6492   -1.4946

!    total energy              =     -45.02454748 Ry
     Harris-Foulkes estimate   =     -45.02454748 Ry
     estimated scf accuracy    <          2.2E-12 Ry

     total all-electron energy =      -153.871430 Ry

     The total energy is the sum of the following terms:

     one-electron contribution =     -68.72104297 Ry
     hartree contribution      =      36.04898014 Ry
     xc contribution           =      -9.21764129 Ry
     ewald contribution        =       7.09114123 Ry
     one-center paw contrib.   =     -10.22598459 Ry
      -> PAW hartree energy AE =      27.76461603 Ry
      -> PAW hartree energy PS =     -27.72998593 Ry
      -> PAW xc energy AE      =     -17.88393016 Ry
      -> PAW xc energy PS      =       7.62455708 Ry
      -> total E_H with PAW    =      36.08361024 Ry
      -> total E_XC with PAW   =     -19.47701437 Ry

     convergence has been achieved in  53 iterations

     negative rho (up, down):  1.567E-03 0.000E+00


     -----------------------------------------------
     Non-local corr. energy    =       0.13613278 Ry
     -----------------------------------------------


     Forces acting on atoms (cartesian axes, Ry/au):

     atom    1 type  1   force =     0.00000000    0.00000000    0.01550121
     atom    2 type  2   force =     0.00000000   -0.00662295   -0.00774552
     atom    3 type  2   force =     0.00000000    0.00662295   -0.00774552
     The non-local contrib.  to forces
     atom    1 type  1   force =     0.00000000    0.00000000    2.52560629
     atom    2 type  2   force =     0.00000000   -0.08977515   -0.06476316
     atom    3 type  2   force =     0.00000000    0.08977515   -0.06476316
     The ionic contribution  to forces
     atom    1 type  1   force =     0.00000000    0.00000000   -4.34786282
     atom    2 type  2   force =     0.00000000    3.01118949    2.17393141
     atom    3 type  2   force =     0.00000000   -3.01118949    2.17393141
     The local contribution  to forces
     atom    1 type  1   force =    -0.00001458   -0.00001433    1.86212909
     atom    2 type  2   force =    -0.00000127   -2.92803758   -2.11691309
     atom    3 type  2   force =    -0.00000127    2.92803693   -2.11691452
     The core correction contribution to forces
     atom    1 type  1   force =     0.00000014    0.00000005   -0.02437157
     atom    2 type  2   force =     0.00000000    0.00000000    0.00000000
     atom    3 type  2   force =     0.00000000    0.00000000    0.00000000
     The Hubbard contrib.    to forces
     atom    1 type  1   force =     0.00000000    0.00000000    0.00000000
     atom    2 type  2   force =     0.00000000    0.00000000    0.00000000
     atom    3 type  2   force =     0.00000000    0.00000000    0.00000000
     The SCF correction term to forces
     atom    1 type  1   force =     0.00000000    0.00000000    0.00000022
     atom    2 type  2   force =     0.00000000   -0.00000002    0.00000003
     atom    3 type  2   force =     0.00000000    0.00000002    0.00000003

     Total force =     0.021166     Total SCF correction =     0.000000

     Writing output data file H2O_IR.save
 
     init_run     :     45.40s CPU     24.13s WALL (       1 calls)
     electrons    :    709.25s CPU    364.45s WALL (       1 calls)
     forces       :     14.65s CPU      7.56s WALL (       1 calls)

     Called by init_run:
     wfcinit      :      0.37s CPU      0.39s WALL (       1 calls)
     wfcinit:atom :      0.00s CPU      0.00s WALL (       1 calls)
     wfcinit:wfcr :      0.35s CPU      0.36s WALL (       1 calls)
     potinit      :     14.26s CPU      7.04s WALL (       1 calls)

     Called by electrons:
     c_bands      :    104.74s CPU     53.83s WALL (      53 calls)
     sum_band     :     41.52s CPU     22.15s WALL (      53 calls)
     v_of_rho     :    541.99s CPU    275.69s WALL (      54 calls)
     v_h          :      9.54s CPU      3.60s WALL (      54 calls)
     v_xc         :    542.48s CPU    277.10s WALL (      55 calls)
     newd         :     10.51s CPU      7.55s WALL (      54 calls)
     PAW_pot      :      3.12s CPU      1.90s WALL (      54 calls)
     mix_rho      :      9.47s CPU      5.37s WALL (      53 calls)

     Called by c_bands:
     init_us_2    :      0.09s CPU      0.09s WALL (     107 calls)
     cegterg      :    104.60s CPU     53.67s WALL (      53 calls)

     Called by sum_band:
     sum_band:bec :      0.00s CPU      0.00s WALL (      53 calls)
     addusdens    :      8.30s CPU      4.35s WALL (      53 calls)

     Called by *egterg:
     h_psi        :     72.83s CPU     36.07s WALL (     211 calls)
     s_psi        :      0.05s CPU      0.05s WALL (     211 calls)
     g_psi        :      0.02s CPU      0.02s WALL (     157 calls)
     cdiaghg      :     13.14s CPU      6.86s WALL (     210 calls)
     cegterg:over :      4.29s CPU      2.26s WALL (     157 calls)
     cegterg:upda :      1.72s CPU      0.71s WALL (     157 calls)
     cegterg:last :      1.32s CPU      0.31s WALL (      58 calls)
     cdiaghg:chol :      0.20s CPU      0.20s WALL (     210 calls)
     cdiaghg:inve :      0.87s CPU      0.14s WALL (     210 calls)
     cdiaghg:para :      0.15s CPU      0.15s WALL (     420 calls)

     Called by h_psi:
     h_psi:pot    :     72.77s CPU     36.01s WALL (     211 calls)
     h_psi:calbec :      1.17s CPU      0.15s WALL (     211 calls)
     vloc_psi     :     71.54s CPU     35.80s WALL (     211 calls)
     add_vuspsi   :      0.05s CPU      0.05s WALL (     211 calls)

     General routines
     calbec       :      1.23s CPU      0.21s WALL (     268 calls)
     fft          :    283.69s CPU    143.84s WALL (    3621 calls)
     ffts         :      1.77s CPU      0.75s WALL (     107 calls)
     fftw         :     76.83s CPU     38.95s WALL (   12028 calls)
     interpolate  :      9.12s CPU      5.05s WALL (     107 calls)
 
     Parallel routines
     fft_scatter  :    217.67s CPU    114.75s WALL (   15756 calls)

     PAW routines
     PAW_pot      :      3.12s CPU      1.90s WALL (      54 calls)
     PAW_symme    :      0.01s CPU      0.01s WALL (     107 calls)
 
     PWSCF        : 12m56.81s CPU     6m41.72s WALL

 
   This run was terminated on:  13:53:47   9Feb2026            

=------------------------------------------------------------------------------=
   JOB DONE.
=------------------------------------------------------------------------------=
