
     Program PWSCF v.6.1 starts on 11Feb2026 at  0:31:11 

     This program is part of the open-source Quantum ESPRESSO suite
     for quantum simulation of materials; please cite
         "P. Giannozzi et al., J. Phys.:Condens. Matter 21 395502 (2009);
          URL http://www.quantum-espresso.org", 
     in publications or presentations arising from this work. More details at
     http://www.quantum-espresso.org/quote

     Parallel version (MPI & OpenMP), running on     480 processor cores
     Number of MPI processes:               240
     Threads/MPI process:                     2
     R & G space division:  proc/nbgrp/npool/nimage =     240
     Reading input from espresso.pwi

     Current dimensions of program PWSCF are:
     Max number of different atomic species (ntypx) = 10
     Max number of k-points (npk) =  40000
     Max angular momentum in pseudopotentials (lmaxx) =  3

     IMPORTANT: XC functional enforced from input :
     Exchange-correlation      = VDW-DF2 ( 1  4 13  0 2 0)
     Any further DFT definition will be discarded
     Please, verify this is what you really want

               file Cu.pbe-dn-kjpaw_psl.1.0.0.UPF: wavefunction(s)  4S 3D renormalized
               file C.pbe-n-kjpaw_psl.1.0.0.UPF: wavefunction(s)  2S 2P renormalized
               file O.pbe-n-kjpaw_psl.1.0.0.UPF: wavefunction(s)  2S 2P renormalized
     Message from routine iosys_1drism:
     default density from MOL file(H2O.tip5p.MOL) is used

     Subspace diagonalization in iterative solution of the eigenvalue problem:
     one sub-group per band group will be used
     ELPA distributed-memory algorithm (size of sub-group: 10* 10 procs)


     Molecule # 1 for H2O read from file:
     /work/gf93/f93007/QE/pseudo/H2O.tip5p.MOL
     Density:
         0.72794769E+02 cell^-1
         0.49533750E-02 bohr^-3
         0.55506881E+02 mol/L
         0.99997200E+00 g/cm^3
     Permittivity:
        78.355300
     Number of atoms:   5
     Atoms:
       #  atom      X (angs)      Y (angs)      Z (angs)      Q (e)         E (kcal/mol)  S (angs)
       1  O/h2o     0.00000000    0.00000000    0.00000000    0.00000000    0.16000000    3.12000000
       2  H/h2o     0.75695000    0.58588000    0.00000000    0.24100000    0.04600000    1.00000000
       3  H/h2o    -0.75695000    0.58588000    0.00000000    0.24100000    0.04600000    1.00000000
       4  L/h2o     0.00000000   -0.40415000    0.57154000   -0.24100000    0.04600000    1.80000000
       5  L/h2o     0.00000000   -0.40415000   -0.57154000   -0.24100000    0.04600000    1.80000000


     Molecule # 2 for K+ read from file:
     /work/gf93/f93007/QE/pseudo/K+.oplsaa.MOL
     Density:
         0.13114549E+01 cell^-1
         0.89238936E-04 bohr^-3
         0.10000000E+01 mol/L
         0.39098300E-01 g/cm^3
     Number of atoms:   1
     Atoms:
       #  atom      X (angs)      Y (angs)      Z (angs)      Q (e)         E (kcal/mol)  S (angs)
       1  K         0.00000000    0.00000000    0.00000000    1.00000000    0.00032800    4.93462800


     Molecule # 3 for OH- read from file:
     /work/gf93/f93007/QE/pseudo/OH-.oplsaa.MOL
     Density:
         0.13114549E+01 cell^-1
         0.89238936E-04 bohr^-3
         0.10000000E+01 mol/L
         0.17007340E-01 g/cm^3
     Number of atoms:   2
     Atoms:
       #  atom      X (angs)      Y (angs)      Z (angs)      Q (e)         E (kcal/mol)  S (angs)
       1  O/oh      0.00000000    0.00000000    0.00000000   -1.30000000    0.25000000    3.20000000
       2  H/oh      0.95300000    0.00000000    0.00000000    0.30000000    0.04600000    1.00000000


     Number of total sites:   8
     Index site -> solvent: 
       1  1  1  1  1  2  3  3
     Index site -> atom (in a solvent): 
       1  2  3  4  5  1  1  2


     Number of unique sites:   6
     Multiplicity of unique site: 
       1  2  2  1  1  1
     Index unique site -> site: 
       1:  1
       2:  2  3
       3:  4  5
       4:  6
       5:  7
       6:  8


     1D-RISM info
     ------------
     closure equation        =           KH
     temperature             =     300.0000  kelvin
     coulomb smearing radius =       2.0000  bohr
     number of solvent sites =            8
     nv * (nv + 1) / 2       =           36
     number of grids         =         8345
     maximum of R-space      =     999.8802  bohr
     maximum of G-space      =      26.2150  bohr^-1
     #R-grids in local       =           66
     #G-grids in local       =           66
     number of iterations    =       100000
     convergence threshold   =      1.0E-08
     Gaussian width of bonds =       0.2530  bohr
     size of MDIIS           =           20
     step of MDIIS           =       0.1000
     number of processes     =          128


     Radial FFT:
     number of radial grids   =         8345
     number of FFT grids      =        16689
     good number of FFT grids =           -1
     R-space grids:
       0.00000000E+00  0.11983223E+00  0.23966447E+00  0.35949670E+00  0.47932894E+00
       0.59916117E+00  0.71899341E+00  0.83882564E+00  0.95865788E+00  0.10784901E+01
       ..............  ..............  ..............  ..............  ..............
       0.99880168E+03  0.99892151E+03  0.99904134E+03  0.99916117E+03  0.99928101E+03
       0.99940084E+03  0.99952067E+03  0.99964050E+03  0.99976034E+03  0.99988017E+03
     G-space grids:
       0.00000000E+00  0.31417809E-02  0.62835618E-02  0.94253427E-02  0.12567124E-01
       0.15708904E-01  0.18850685E-01  0.21992466E-01  0.25134247E-01  0.28276028E-01
       ..............  ..............  ..............  ..............  ..............
       0.26186744E+02  0.26189886E+02  0.26193027E+02  0.26196169E+02  0.26199311E+02
       0.26202453E+02  0.26205594E+02  0.26208736E+02  0.26211878E+02  0.26215020E+02


     MPI for site:
     number of site groups     =          128
     #procs in a site group    =            1
     this proc in a site group =            0
     the root in a site group  =            0
     this site group           =            0
     inter-site group comm.    =           20
     intra-site group comm.    =            2
     total number of sites     =           36
     starting index of sites   =            1
     ending index of sites     =            1


     MPI for task:
     #procs in a task group    =          128
     this proc in a task group =            0
     the root in a task group  =            0
     task group comm.          =           20
     total number of vectors   =         8345
     starting index of vectors =            1
     ending index of vectors   =           66
     lengths of vectors        = 
        66   66   66   66   66   66   66   66   66   66
        66   66   66   66   66   66   66   66   66   66
        66   66   66   66   66   65   65   65   65   65
        65   65   65   65   65   65   65   65   65   65
        65   65   65   65   65   65   65   65   65   65
        65   65   65   65   65   65   65   65   65   65
        65   65   65   65   65   65   65   65   65   65
        65   65   65   65   65   65   65   65   65   65
        65   65   65   65   65   65   65   65   65   65
        65   65   65   65   65   65   65   65   65   65
        65   65   65   65   65   65   65   65   65   65
        65   65   65   65   65   65   65   65   65   65
        65   65   65   65   65   65   65   65
     displacement of vectors   = 
         0   66  132  198  264  330  396  462  528  594
       660  726  792  858  924  990 1056 1122 1188 1254
      1320 1386 1452 1518 1584 1650 1715 1780 1845 1910
      1975 2040 2105 2170 2235 2300 2365 2430 2495 2560
      2625 2690 2755 2820 2885 2950 3015 3080 3145 3210
      3275 3340 3405 3470 3535 3600 3665 3730 3795 3860
      3925 3990 4055 4120 4185 4250 4315 4380 4445 4510
      4575 4640 4705 4770 4835 4900 4965 5030 5095 5160
      5225 5290 5355 5420 5485 5550 5615 5680 5745 5810
      5875 5940 6005 6070 6135 6200 6265 6330 6395 6460
      6525 6590 6655 6720 6785 6850 6915 6980 7045 7110
      7175 7240 7305 7370 7435 7500 7565 7630 7695 7760
      7825 7890 7955 8020 8085 8150 8215 8280


     Correlation function is read from file


     1D-RISM Calculation

     iter. #     1  RMS(g-h-1)= 9.995E-09  nbox=  0  T=  300.00K

     End of 1D-RISM calculation


     convergence has been achieved in     1 iterations


     Chemical potential of solvation

     H2O        H2O        Closure      0.106068E+01 kcal/mol
                           GaussFluct  -0.737993E+01 kcal/mol

                K+         Closure     -0.288345E+00 kcal/mol
                           GaussFluct  -0.358438E+00 kcal/mol

                OH-        Closure     -0.764259E+00 kcal/mol
                           GaussFluct  -0.855991E+00 kcal/mol

                Total      Closure      0.808077E-02 kcal/mol
                           GaussFluct  -0.859435E+01 kcal/mol

     K+         H2O        Closure     -0.160051E+02 kcal/mol
                           GaussFluct  -0.198958E+02 kcal/mol

                K+         Closure      0.351561E+06 kcal/mol
                           GaussFluct   0.351561E+06 kcal/mol

                OH-        Closure     -0.351612E+06 kcal/mol
                           GaussFluct  -0.351612E+06 kcal/mol

                Total      Closure     -0.668098E+02 kcal/mol
                           GaussFluct  -0.707592E+02 kcal/mol

     OH-        H2O        Closure     -0.424217E+02 kcal/mol
                           GaussFluct  -0.475134E+02 kcal/mol

                K+         Closure     -0.351612E+06 kcal/mol
                           GaussFluct  -0.351612E+06 kcal/mol

                OH-        Closure      0.351561E+06 kcal/mol
                           GaussFluct   0.351561E+06 kcal/mol

                Total      Closure     -0.934347E+02 kcal/mol
                           GaussFluct  -0.986502E+02 kcal/mol

 
     Parallelization info
     --------------------
     sticks:   dense  smooth     PW     G-vecs:    dense   smooth      PW
     Min          40      16      4                16136     4064     568
     Max          41      17      5                16171     4100     615
     Sum        9661    3865   1057              3875677   980529  140539
 

     Title: 
     Cu-vib                                                                     


     bravais-lattice index     =            0
     lattice parameter (alat)  =      14.9832  a.u.
     unit-cell volume          =   14695.9939 (a.u.)^3
     number of atoms/cell      =           38
     number of atomic types    =            3
     number of electrons       =       406.00
     number of Kohn-Sham states=          244
     kinetic-energy cutoff     =      62.4738  Ry
     charge density cutoff     =     624.7385  Ry
     convergence threshold     =      7.3E-12
     mixing beta               =       0.3333
     number of iterations used =           12  plain     mixing
     Exchange-correlation      = VDW-DF2 ( 1  4 13  0 2 0)

     Effective Screening Medium Method
     =================================
     Boundary Conditions: Vacuum-Slab-Vacuum
     total charge in unit cell        =   0.0000
     grid points for fit at edges     =        4 
 

     celldm(1)=  14.983209  celldm(2)=   0.000000  celldm(3)=   0.000000
     celldm(4)=   0.000000  celldm(5)=   0.000000  celldm(6)=   0.000000

     crystal axes: (cart. coord. in units of alat)
               a(1) = (   1.000000   0.000000   0.000000 )  
               a(2) = (   0.500000   0.866025   0.000000 )  
               a(3) = (   0.000000   0.000000   5.044917 )  

     reciprocal axes: (cart. coord. in units 2 pi/alat)
               b(1) = (  1.000000 -0.577351  0.000000 )  
               b(2) = (  0.000000  1.154701  0.000000 )  
               b(3) = (  0.000000  0.000000  0.198219 )  


     PseudoPot. # 1 for Cu read from file:
     /work/gf93/f93007/QE/pseudo/Cu.pbe-dn-kjpaw_psl.1.0.0.UPF
     MD5 check sum: 67c40f9e1593dc2d139023e70404cc2a
     Pseudo is Projector augmented-wave + core cor, Zval = 11.0
     Generated using "atomic" code by A. Dal Corso  v.6.1 svn rev. 13369
     Shape of augmentation charge: PSQ
     Using radial grid of 1199 points,  6 beta functions with: 
                l(1) =   0
                l(2) =   0
                l(3) =   1
                l(4) =   1
                l(5) =   2
                l(6) =   2
     Q(r) pseudized with 0 coefficients 


     PseudoPot. # 2 for  C read from file:
     /work/gf93/f93007/QE/pseudo/C.pbe-n-kjpaw_psl.1.0.0.UPF
     MD5 check sum: 92a742b3ac0ce1af44b5aa3f9352ca21
     Pseudo is Projector augmented-wave + core cor, Zval =  4.0
     Generated using "atomic" code by A. Dal Corso  v.6.1 svn rev. 13369
     Shape of augmentation charge: PSQ
     Using radial grid of 1073 points,  4 beta functions with: 
                l(1) =   0
                l(2) =   0
                l(3) =   1
                l(4) =   1
     Q(r) pseudized with 0 coefficients 


     PseudoPot. # 3 for  O read from file:
     /work/gf93/f93007/QE/pseudo/O.pbe-n-kjpaw_psl.1.0.0.UPF
     MD5 check sum: c61d840054b6bba219e553541e327118
     Pseudo is Projector augmented-wave + core cor, Zval =  6.0
     Generated using "atomic" code by A. Dal Corso  v.6.1 svn rev. 13369
     Shape of augmentation charge: PSQ
     Using radial grid of 1095 points,  4 beta functions with: 
                l(1) =   0
                l(2) =   0
                l(3) =   1
                l(4) =   1
     Q(r) pseudized with 0 coefficients 


     vdW kernel table read from file vdW_kernel_table
     MD5 check sum: 6d69797d2e858e93e031fb7d16d30e50

     atomic species   valence    mass     pseudopotential
        Cu            11.00    63.54600     Cu( 1.00)
        C              4.00    12.01100      C( 1.00)
        O              6.00    15.99900      O( 1.00)

     No symmetry found


                                    s                        frac. trans.

      isym =  1     identity                                     

 cryst.   s( 1) = (     1          0          0      )
                  (     0          1          0      )
                  (     0          0          1      )

 cart.    s( 1) = (  1.0000000  0.0000000  0.0000000 )
                  (  0.0000000  1.0000000  0.0000000 )
                  (  0.0000000  0.0000000  1.0000000 )


   Cartesian axes

     site n.     atom                  positions (alat units)
         1           Cu  tau(   1) = (   0.0000000   0.0000000  -0.8248888  )
         2           Cu  tau(   2) = (   0.3333333   0.0000000  -0.8248888  )
         3           Cu  tau(   3) = (   0.6666667   0.0000000  -0.8248888  )
         4           Cu  tau(   4) = (   0.1666667   0.2886751  -0.8248888  )
         5           Cu  tau(   5) = (   0.5000000   0.2886751  -0.8248888  )
         6           Cu  tau(   6) = (   0.8333333   0.2886751  -0.8248888  )
         7           Cu  tau(   7) = (   0.3333333   0.5773503  -0.8248888  )
         8           Cu  tau(   8) = (   0.6666667   0.5773503  -0.8248888  )
         9           Cu  tau(   9) = (   1.0000000   0.5773503  -0.8248888  )
        10           Cu  tau(  10) = (   0.1679527   0.0969677  -0.5550278  )
        11           Cu  tau(  11) = (   0.5000001   0.0963555  -0.5546924  )
        12           Cu  tau(  12) = (   0.8320475   0.0969677  -0.5550278  )
        13           Cu  tau(  13) = (   0.3334463   0.3848350  -0.5546924  )
        14           Cu  tau(  14) = (   0.6665540   0.3848351  -0.5546924  )
        15           Cu  tau(  15) = (   1.0000000   0.3851225  -0.5554971  )
        16           Cu  tau(  16) = (   0.5000002   0.6720902  -0.5550277  )
        17           Cu  tau(  17) = (   0.8335259   0.6734639  -0.5554970  )
        18           Cu  tau(  18) = (   1.1664742   0.6734639  -0.5554970  )
        19           Cu  tau(  19) = (   0.0000002   0.1919045  -0.2895402  )
        20           Cu  tau(  20) = (   0.3359748   0.1939752  -0.2811846  )
        21           Cu  tau(  21) = (   0.6640256   0.1939752  -0.2811846  )
        22           Cu  tau(  22) = (   0.1667941   0.4810516  -0.2872685  )
        23           Cu  tau(  23) = (   0.5000002   0.4780753  -0.2811846  )
        24           Cu  tau(  24) = (   0.8332061   0.4810517  -0.2872684  )
        25           Cu  tau(  25) = (   0.3338062   0.7700731  -0.2895404  )
        26           Cu  tau(  26) = (   0.6661942   0.7700731  -0.2895403  )
        27           Cu  tau(  27) = (   1.0000001   0.7699472  -0.2872685  )
        28           Cu  tau(  28) = (   0.0000000   0.0000002  -0.0207473  )
        29           Cu  tau(  29) = (   0.3317716  -0.0034666  -0.0198287  )
        30           Cu  tau(  30) = (   0.6682285  -0.0034665  -0.0198288  )
        31           Cu  tau(  31) = (   0.1628835   0.2890560  -0.0198289  )
        32           Cu  tau(  32) = (   0.5000001   0.2886752   0.0000000  )
        33           Cu  tau(  33) = (   0.8371164   0.2890560  -0.0198289  )
        34           Cu  tau(  34) = (   0.3311120   0.5804359  -0.0198289  )
        35           Cu  tau(  35) = (   0.6688881   0.5804359  -0.0198288  )
        36           Cu  tau(  36) = (   1.0000000   0.5773501  -0.0191733  )
        37           C   tau(  37) = (   0.4999994   0.2874135   0.2397149  )
        38           O   tau(  38) = (   0.4999989   0.2886744   0.3848034  )

   Crystallographic axes

     site n.     atom                  positions (cryst. coord.)
         1           Cu  tau(   1) = (  0.0000000  0.0000000 -0.1635089  )
         2           Cu  tau(   2) = (  0.3333333  0.0000000 -0.1635089  )
         3           Cu  tau(   3) = (  0.6666667  0.0000000 -0.1635089  )
         4           Cu  tau(   4) = ( -0.0000001  0.3333335 -0.1635089  )
         5           Cu  tau(   5) = (  0.3333333  0.3333335 -0.1635089  )
         6           Cu  tau(   6) = (  0.6666666  0.3333335 -0.1635089  )
         7           Cu  tau(   7) = ( -0.0000002  0.6666670 -0.1635089  )
         8           Cu  tau(   8) = (  0.3333332  0.6666670 -0.1635089  )
         9           Cu  tau(   9) = (  0.6666665  0.6666670 -0.1635089  )
        10           Cu  tau(  10) = (  0.1119684  0.1119687 -0.1100172  )
        11           Cu  tau(  11) = (  0.4443691  0.1112618 -0.1099508  )
        12           Cu  tau(  12) = (  0.7760631  0.1119687 -0.1100172  )
        13           Cu  tau(  13) = (  0.1112615  0.4443694 -0.1099508  )
        14           Cu  tau(  14) = (  0.4443692  0.4443695 -0.1099507  )
        15           Cu  tau(  15) = (  0.7776494  0.4447013 -0.1101102  )
        16           Cu  tau(  16) = (  0.1119685  0.7760633 -0.1100172  )
        17           Cu  tau(  17) = (  0.4447012  0.7776495 -0.1101102  )
        18           Cu  tau(  18) = (  0.7776494  0.7776495 -0.1101102  )
        19           Cu  tau(  19) = ( -0.1107960  0.2215923 -0.0573925  )
        20           Cu  tau(  20) = (  0.2239831  0.2239834 -0.0557362  )
        21           Cu  tau(  21) = (  0.5520338  0.2239834 -0.0557362  )
        22           Cu  tau(  22) = ( -0.1109413  0.5554709 -0.0569422  )
        23           Cu  tau(  23) = (  0.2239831  0.5520341 -0.0557362  )
        24           Cu  tau(  24) = (  0.5554707  0.5554709 -0.0569421  )
        25           Cu  tau(  25) = ( -0.1107959  0.8892042 -0.0573925  )
        26           Cu  tau(  26) = (  0.2215921  0.8892042 -0.0573925  )
        27           Cu  tau(  27) = (  0.5554707  0.8890589 -0.0569422  )
        28           Cu  tau(  28) = ( -0.0000001  0.0000002 -0.0041125  )
        29           Cu  tau(  29) = (  0.3337730 -0.0040029 -0.0039304  )
        30           Cu  tau(  30) = (  0.6702299 -0.0040028 -0.0039305  )
        31           Cu  tau(  31) = ( -0.0040031  0.3337733 -0.0039305  )
        32           Cu  tau(  32) = (  0.3333333  0.3333336  0.0000000  )
        33           Cu  tau(  33) = (  0.6702298  0.3337733 -0.0039305  )
        34           Cu  tau(  34) = ( -0.0040030  0.6702300 -0.0039305  )
        35           Cu  tau(  35) = (  0.3337731  0.6702300 -0.0039305  )
        36           Cu  tau(  36) = (  0.6666666  0.6666667 -0.0038005  )
        37           C   tau(  37) = (  0.3340611  0.3318767  0.0475161  )
        38           O   tau(  38) = (  0.3333326  0.3333326  0.0762755  )

     number of k points=    34  Marzari-Vanderbilt smearing, width (Ry)=  0.0073
                       cart. coord. in units 2pi/alat
        k(    1) = (   0.0000000   0.0000000   0.0000000), wk =   0.0312500
        k(    2) = (   0.0000000   0.1443376   0.0000000), wk =   0.0625000
        k(    3) = (   0.0000000   0.2886753   0.0000000), wk =   0.0625000
        k(    4) = (   0.0000000   0.4330129   0.0000000), wk =   0.0625000
        k(    5) = (   0.0000000  -0.5773505   0.0000000), wk =   0.0312500
        k(    6) = (   0.1250000  -0.0721688   0.0000000), wk =   0.0625000
        k(    7) = (   0.1250000   0.0721688   0.0000000), wk =   0.0625000
        k(    8) = (   0.1250000   0.2165065   0.0000000), wk =   0.0625000
        k(    9) = (   0.1250000   0.3608441   0.0000000), wk =   0.0625000
        k(   10) = (   0.1250000  -0.6495194   0.0000000), wk =   0.0625000
        k(   11) = (   0.1250000  -0.5051817   0.0000000), wk =   0.0625000
        k(   12) = (   0.1250000  -0.3608441   0.0000000), wk =   0.0625000
        k(   13) = (   0.1250000  -0.2165065   0.0000000), wk =   0.0625000
        k(   14) = (   0.2500000  -0.1443376   0.0000000), wk =   0.0625000
        k(   15) = (   0.2500000   0.0000000   0.0000000), wk =   0.0625000
        k(   16) = (   0.2500000   0.1443376   0.0000000), wk =   0.0625000
        k(   17) = (   0.2500000   0.2886753   0.0000000), wk =   0.0625000
        k(   18) = (   0.2500000  -0.7216882   0.0000000), wk =   0.0625000
        k(   19) = (   0.2500000  -0.5773505   0.0000000), wk =   0.0625000
        k(   20) = (   0.2500000  -0.4330129   0.0000000), wk =   0.0625000
        k(   21) = (   0.2500000  -0.2886753   0.0000000), wk =   0.0625000
        k(   22) = (   0.3750000  -0.2165065   0.0000000), wk =   0.0625000
        k(   23) = (   0.3750000  -0.0721688   0.0000000), wk =   0.0625000
        k(   24) = (   0.3750000   0.0721688   0.0000000), wk =   0.0625000
        k(   25) = (   0.3750000   0.2165065   0.0000000), wk =   0.0625000
        k(   26) = (   0.3750000  -0.7938570   0.0000000), wk =   0.0625000
        k(   27) = (   0.3750000  -0.6495194   0.0000000), wk =   0.0625000
        k(   28) = (   0.3750000  -0.5051817   0.0000000), wk =   0.0625000
        k(   29) = (   0.3750000  -0.3608441   0.0000000), wk =   0.0625000
        k(   30) = (  -0.5000000   0.2886753   0.0000000), wk =   0.0312500
        k(   31) = (  -0.5000000   0.4330129   0.0000000), wk =   0.0625000
        k(   32) = (  -0.5000000   0.5773505   0.0000000), wk =   0.0625000
        k(   33) = (  -0.5000000   0.7216882   0.0000000), wk =   0.0625000
        k(   34) = (  -0.5000000  -0.2886753   0.0000000), wk =   0.0312500

                       cryst. coord.
        k(    1) = (   0.0000000   0.0000000   0.0000000), wk =   0.0312500
        k(    2) = (   0.0000000   0.1250000   0.0000000), wk =   0.0625000
        k(    3) = (   0.0000000   0.2500000   0.0000000), wk =   0.0625000
        k(    4) = (   0.0000000   0.3750000   0.0000000), wk =   0.0625000
        k(    5) = (   0.0000000  -0.5000000   0.0000000), wk =   0.0312500
        k(    6) = (   0.1250000   0.0000000   0.0000000), wk =   0.0625000
        k(    7) = (   0.1250000   0.1250000   0.0000000), wk =   0.0625000
        k(    8) = (   0.1250000   0.2500000   0.0000000), wk =   0.0625000
        k(    9) = (   0.1250000   0.3750000   0.0000000), wk =   0.0625000
        k(   10) = (   0.1250000  -0.5000000   0.0000000), wk =   0.0625000
        k(   11) = (   0.1250000  -0.3750000   0.0000000), wk =   0.0625000
        k(   12) = (   0.1250000  -0.2500000   0.0000000), wk =   0.0625000
        k(   13) = (   0.1250000  -0.1250000   0.0000000), wk =   0.0625000
        k(   14) = (   0.2500000   0.0000000   0.0000000), wk =   0.0625000
        k(   15) = (   0.2500000   0.1250000   0.0000000), wk =   0.0625000
        k(   16) = (   0.2500000   0.2500000   0.0000000), wk =   0.0625000
        k(   17) = (   0.2500000   0.3750000   0.0000000), wk =   0.0625000
        k(   18) = (   0.2500000  -0.5000000   0.0000000), wk =   0.0625000
        k(   19) = (   0.2500000  -0.3750000   0.0000000), wk =   0.0625000
        k(   20) = (   0.2500000  -0.2500000   0.0000000), wk =   0.0625000
        k(   21) = (   0.2500000  -0.1250000   0.0000000), wk =   0.0625000
        k(   22) = (   0.3750000   0.0000000   0.0000000), wk =   0.0625000
        k(   23) = (   0.3750000   0.1250000   0.0000000), wk =   0.0625000
        k(   24) = (   0.3750000   0.2500000   0.0000000), wk =   0.0625000
        k(   25) = (   0.3750000   0.3750000   0.0000000), wk =   0.0625000
        k(   26) = (   0.3750000  -0.5000000   0.0000000), wk =   0.0625000
        k(   27) = (   0.3750000  -0.3750000   0.0000000), wk =   0.0625000
        k(   28) = (   0.3750000  -0.2500000   0.0000000), wk =   0.0625000
        k(   29) = (   0.3750000  -0.1250000   0.0000000), wk =   0.0625000
        k(   30) = (  -0.5000000   0.0000000   0.0000000), wk =   0.0312500
        k(   31) = (  -0.5000000   0.1250000   0.0000000), wk =   0.0625000
        k(   32) = (  -0.5000000   0.2500000   0.0000000), wk =   0.0625000
        k(   33) = (  -0.5000000   0.3750000   0.0000000), wk =   0.0625000
        k(   34) = (  -0.5000000  -0.5000000   0.0000000), wk =   0.0312500

     Dense  grid:  3875677 G-vectors     FFT dimensions: ( 120, 120, 625)

     Smooth grid:   980529 G-vectors     FFT dimensions: (  75,  75, 384)

     Estimated max dynamical RAM per process >     140.99MB

     Estimated total allocated dynamical RAM >   33838.49MB

     Solute:
       # atom     E (kcal/mol)  S (angs)
       1  Cu      1.00000000    3.00000000    given
       2  Cu      1.00000000    3.00000000    given
       3  Cu      1.00000000    3.00000000    given
       4  Cu      1.00000000    3.00000000    given
       5  Cu      1.00000000    3.00000000    given
       6  Cu      1.00000000    3.00000000    given
       7  Cu      1.00000000    3.00000000    given
       8  Cu      1.00000000    3.00000000    given
       9  Cu      1.00000000    3.00000000    given
      10  Cu      1.00000000    3.00000000    given
      11  Cu      1.00000000    3.00000000    given
      12  Cu      1.00000000    3.00000000    given
      13  Cu      1.00000000    3.00000000    given
      14  Cu      1.00000000    3.00000000    given
      15  Cu      1.00000000    3.00000000    given
      16  Cu      1.00000000    3.00000000    given
      17  Cu      1.00000000    3.00000000    given
      18  Cu      1.00000000    3.00000000    given
      19  Cu      1.00000000    3.00000000    given
      20  Cu      1.00000000    3.00000000    given
      21  Cu      1.00000000    3.00000000    given
      22  Cu      1.00000000    3.00000000    given
      23  Cu      1.00000000    3.00000000    given
      24  Cu      1.00000000    3.00000000    given
      25  Cu      1.00000000    3.00000000    given
      26  Cu      1.00000000    3.00000000    given
      27  Cu      1.00000000    3.00000000    given
      28  Cu      1.00000000    3.00000000    given
      29  Cu      1.00000000    3.00000000    given
      30  Cu      1.00000000    3.00000000    given
      31  Cu      1.00000000    3.00000000    given
      32  Cu      1.00000000    3.00000000    given
      33  Cu      1.00000000    3.00000000    given
      34  Cu      1.00000000    3.00000000    given
      35  Cu      1.00000000    3.00000000    given
      36  Cu      1.00000000    3.00000000    given
      37  C       0.07000000    3.55000000    OPLS-AA
      38  O       0.17000000    3.00000000    OPLS-AA

     Wall:
       Density =    0.01000000  bohr^-3
       E       =    0.10000000  kcal/mol
       S       =    4.00000000  angs

     L.J. cutoff radius =       5.0000  S


     Laue-RISM info
     --------------
     closure equation        =           KH
     temperature             =     300.0000  kelvin
     coulomb smearing radius =       2.0000  bohr
     number of solvent sites =            6
     solvent sites           =    O/h2o   H/h2o   L/h2o       K
     solvent sites           =     O/oh    H/oh
     #R-grids in local       =        11250
     #Rz-grids (unit-cell)   =          384
     #Rz-grids (expand-cell) =          720
     #G-grids in local       =         4081
     #Gxy-grids in local     =           17
     #Gxy-shells in local    =           17
     number of iterations    =        10000
     convergence threshold   =      1.0E-06
     convergence level       =       0.8000
     size of MDIIS           =           20
     step of MDIIS           =       0.8000
     solvent cutoff          =     249.8954  Ry
     Custom grid:   980529 G-vectors     FFT dimensions: (  75,  75, 384)

     Boundary Conditions        : Vacuum-Slab-Solvent
     unit-cell (in bohr)        : [ -37.794523  37.794523]
     expand-cell (in bohr)      : [ -37.794523 103.934937]
     solvent of right (in bohr) : [  -8.267552 103.934937]
     buffer  of right (in bohr) : [ -18.109875  -8.267552]
     Gxy = 0 of right (in bohr) : [ -18.109875  82.872365]
     repulsive wall (in bohr)   : [  -Infinity -10.486273]
     reference of potential     : right-hand side
     #grids to fit at edges of unit-cell =    4
     Laue grid:     3865 Gxy-vectors     FFT dimensions: (  75,  75, 720)


     MPI for site:
     number of site groups     =            1
     #procs in a site group    =          240
     this proc in a site group =            0
     the root in a site group  =            0
     this site group           =            0
     inter-site group comm.    =           23
     intra-site group comm.    =            5
     total number of sites     =            6
     starting index of sites   =            1
     ending index of sites     =            6


     MPI for task:
     #procs in a task group    =          240
     this proc in a task group =            0
     the root in a task group  =            0
     task group comm.          =            5


     Initial potential from superposition of free atoms
     Check: negative starting charge=   -0.001648

     starting charge  405.99177, renormalised to  406.00000

     Correlation function is read from file


     negative rho (up, down):  1.648E-03 0.000E+00


     %%%%%%%%%%%%%%%%%%%%%%%%%%%%%%%%%%%%%%%%%%%%%%%%%%%%%%%%%%%%%%%%%%%%%%%%
     %                                                                      %
     % You are using vdW-DF, which was implemented by the Thonhauser group. %
     % Please cite the following two papers that made this development      %
     % possible and the two reviews that describe the various versions:     %
     %                                                                      %
     %   T. Thonhauser et al., PRL 115, 136402 (2015).                      %
     %   T. Thonhauser et al., PRB 76, 125112 (2007).                       %
     %   K. Berland et al., Rep. Prog. Phys. 78, 066501 (2015).             %
     %   D.C. Langreth et al., J. Phys.: Condens. Matter 21, 084203 (2009). %
     %                                                                      %
     %                                                                      %
     % If you are calculating the stress with vdW-DF, please also cite:     %
     %                                                                      %
     %   R. Sabatini et al., J. Phys.: Condens. Matter 24, 424209 (2012).   %
     %                                                                      %
     %%%%%%%%%%%%%%%%%%%%%%%%%%%%%%%%%%%%%%%%%%%%%%%%%%%%%%%%%%%%%%%%%%%%%%%%


     Carrying out vdW-DF run using the following parameters:
     Nqs    =  20  Npoints =  1024  r_max =  100.000
     q_mesh =  0.00001000  0.04494208  0.09755937  0.15916263
               0.23128650  0.31572767  0.41458969  0.53033537
               0.66584808  0.82450364  1.01025438  1.22772762
               1.48234092  1.78043706  2.12944203  2.53805004
               3.01644009  3.57652955  4.23227104  5.00000000


     -----------------------------------------------
     Non-local corr. energy    =      22.28442055 Ry
     -----------------------------------------------


     Laue-RISM Calculation

     convergence threshold    = 6.310E-06
     iter. #     1  RMS(g-h-1)= 4.940E-02  nbox=  0
     iter. #     2  RMS(g-h-1)= 3.773E-02  nbox=  1
     iter. #     3  RMS(g-h-1)= 2.312E-02  nbox=  2
     iter. #     4  RMS(g-h-1)= 1.032E-02  nbox=  3
     iter. #     5  RMS(g-h-1)= 9.047E-03  nbox=  4
     iter. #     6  RMS(g-h-1)= 7.539E-03  nbox=  5
     iter. #     7  RMS(g-h-1)= 6.452E-03  nbox=  6
     iter. #     8  RMS(g-h-1)= 5.752E-03  nbox=  7
     iter. #     9  RMS(g-h-1)= 5.298E-03  nbox=  8
     iter. #    10  RMS(g-h-1)= 5.014E-03  nbox=  9
     iter. #    11  RMS(g-h-1)= 4.678E-03  nbox= 10
     iter. #    12  RMS(g-h-1)= 4.345E-03  nbox= 11
     iter. #    13  RMS(g-h-1)= 4.069E-03  nbox= 12
     iter. #    14  RMS(g-h-1)= 3.915E-03  nbox= 13
     iter. #    15  RMS(g-h-1)= 3.596E-03  nbox= 14
     iter. #    16  RMS(g-h-1)= 3.297E-03  nbox= 15
     iter. #    17  RMS(g-h-1)= 2.967E-03  nbox= 16
     iter. #    18  RMS(g-h-1)= 2.769E-03  nbox= 17
     iter. #    19  RMS(g-h-1)= 2.435E-03  nbox= 18
     iter. #    20  RMS(g-h-1)= 2.162E-03  nbox= 19
     iter. #    21  RMS(g-h-1)= 2.012E-03  nbox= 20
     iter. #    22  RMS(g-h-1)= 1.881E-03  nbox= 20
     iter. #    23  RMS(g-h-1)= 1.737E-03  nbox= 20
     iter. #    24  RMS(g-h-1)= 1.630E-03  nbox= 20
     iter. #    25  RMS(g-h-1)= 1.581E-03  nbox= 20
     iter. #    26  RMS(g-h-1)= 1.515E-03  nbox= 20
     iter. #    27  RMS(g-h-1)= 1.450E-03  nbox= 20
     iter. #    28  RMS(g-h-1)= 1.400E-03  nbox= 20
     iter. #    29  RMS(g-h-1)= 1.363E-03  nbox= 20
     iter. #    30  RMS(g-h-1)= 1.317E-03  nbox= 20
     iter. #    31  RMS(g-h-1)= 1.279E-03  nbox= 20
     iter. #    32  RMS(g-h-1)= 1.233E-03  nbox= 20
     iter. #    33  RMS(g-h-1)= 1.184E-03  nbox= 20
     iter. #    34  RMS(g-h-1)= 1.157E-03  nbox= 20
     iter. #    35  RMS(g-h-1)= 1.106E-03  nbox= 20
     iter. #    36  RMS(g-h-1)= 1.074E-03  nbox= 20
     iter. #    37  RMS(g-h-1)= 1.038E-03  nbox= 20
     iter. #    38  RMS(g-h-1)= 1.020E-03  nbox= 20
     iter. #    39  RMS(g-h-1)= 9.889E-04  nbox= 20
     iter. #    40  RMS(g-h-1)= 9.754E-04  nbox= 20
     iter. #    41  RMS(g-h-1)= 9.634E-04  nbox=  2
     iter. #    42  RMS(g-h-1)= 9.422E-04  nbox=  3
     iter. #    43  RMS(g-h-1)= 9.156E-04  nbox=  4
     iter. #    44  RMS(g-h-1)= 8.987E-04  nbox=  5
     iter. #    45  RMS(g-h-1)= 8.774E-04  nbox=  6
     iter. #    46  RMS(g-h-1)= 8.775E-04  nbox=  7
     iter. #    47  RMS(g-h-1)= 8.535E-04  nbox=  8
     iter. #    48  RMS(g-h-1)= 8.403E-04  nbox=  9
     iter. #    49  RMS(g-h-1)= 8.282E-04  nbox= 10
     iter. #    50  RMS(g-h-1)= 8.125E-04  nbox= 11
     iter. #    51  RMS(g-h-1)= 7.994E-04  nbox= 12
     iter. #    52  RMS(g-h-1)= 7.862E-04  nbox= 13
     iter. #    53  RMS(g-h-1)= 7.625E-04  nbox= 14
     iter. #    54  RMS(g-h-1)= 7.450E-04  nbox= 15
     iter. #    55  RMS(g-h-1)= 7.306E-04  nbox= 16
     iter. #    56  RMS(g-h-1)= 7.288E-04  nbox= 17
     iter. #    57  RMS(g-h-1)= 7.253E-04  nbox=  2
     iter. #    58  RMS(g-h-1)= 7.130E-04  nbox=  3
     iter. #    59  RMS(g-h-1)= 7.018E-04  nbox=  4
     iter. #    60  RMS(g-h-1)= 6.911E-04  nbox=  5
     iter. #    61  RMS(g-h-1)= 6.798E-04  nbox=  6
     iter. #    62  RMS(g-h-1)= 6.850E-04  nbox=  7
     iter. #    63  RMS(g-h-1)= 6.609E-04  nbox=  8
     iter. #    64  RMS(g-h-1)= 6.506E-04  nbox=  9
     iter. #    65  RMS(g-h-1)= 6.375E-04  nbox= 10
     iter. #    66  RMS(g-h-1)= 6.216E-04  nbox= 11
     iter. #    67  RMS(g-h-1)= 6.210E-04  nbox= 12
     iter. #    68  RMS(g-h-1)= 5.996E-04  nbox= 13
     iter. #    69  RMS(g-h-1)= 5.974E-04  nbox= 14
     iter. #    70  RMS(g-h-1)= 5.845E-04  nbox= 15
     iter. #    71  RMS(g-h-1)= 5.741E-04  nbox= 16
     iter. #    72  RMS(g-h-1)= 5.615E-04  nbox= 17
     iter. #    73  RMS(g-h-1)= 5.578E-04  nbox=  2
     iter. #    74  RMS(g-h-1)= 5.447E-04  nbox=  3
     iter. #    75  RMS(g-h-1)= 5.345E-04  nbox=  4
     iter. #    76  RMS(g-h-1)= 5.301E-04  nbox=  5
     iter. #    77  RMS(g-h-1)= 5.206E-04  nbox=  6
     iter. #    78  RMS(g-h-1)= 5.070E-04  nbox=  7
     iter. #    79  RMS(g-h-1)= 4.907E-04  nbox=  8
     iter. #    80  RMS(g-h-1)= 4.761E-04  nbox=  9
     iter. #    81  RMS(g-h-1)= 4.673E-04  nbox= 10
     iter. #    82  RMS(g-h-1)= 4.574E-04  nbox= 11
     iter. #    83  RMS(g-h-1)= 4.483E-04  nbox= 12
     iter. #    84  RMS(g-h-1)= 4.417E-04  nbox= 13
     iter. #    85  RMS(g-h-1)= 4.342E-04  nbox= 14
     iter. #    86  RMS(g-h-1)= 4.306E-04  nbox= 15
     iter. #    87  RMS(g-h-1)= 4.238E-04  nbox= 16
     iter. #    88  RMS(g-h-1)= 4.167E-04  nbox= 17
     iter. #    89  RMS(g-h-1)= 4.145E-04  nbox=  2
     iter. #    90  RMS(g-h-1)= 4.041E-04  nbox=  3
     iter. #    91  RMS(g-h-1)= 3.935E-04  nbox=  4
     iter. #    92  RMS(g-h-1)= 3.839E-04  nbox=  5
     iter. #    93  RMS(g-h-1)= 3.774E-04  nbox=  6
     iter. #    94  RMS(g-h-1)= 3.712E-04  nbox=  7
     iter. #    95  RMS(g-h-1)= 3.620E-04  nbox=  8
     iter. #    96  RMS(g-h-1)= 3.535E-04  nbox=  9
     iter. #    97  RMS(g-h-1)= 3.467E-04  nbox= 10
     iter. #    98  RMS(g-h-1)= 3.414E-04  nbox= 11
     iter. #    99  RMS(g-h-1)= 3.382E-04  nbox= 12
     iter. #   100  RMS(g-h-1)= 3.346E-04  nbox= 13
     iter. #   101  RMS(g-h-1)= 3.299E-04  nbox= 14
     iter. #   102  RMS(g-h-1)= 3.250E-04  nbox= 15
     iter. #   103  RMS(g-h-1)= 3.199E-04  nbox= 16
     iter. #   104  RMS(g-h-1)= 3.155E-04  nbox= 17
     iter. #   105  RMS(g-h-1)= 3.129E-04  nbox=  2
     iter. #   106  RMS(g-h-1)= 3.072E-04  nbox=  3
     iter. #   107  RMS(g-h-1)= 3.014E-04  nbox=  4
     iter. #   108  RMS(g-h-1)= 2.961E-04  nbox=  5
     iter. #   109  RMS(g-h-1)= 2.927E-04  nbox=  6
     iter. #   110  RMS(g-h-1)= 2.893E-04  nbox=  7
     iter. #   111  RMS(g-h-1)= 2.852E-04  nbox=  8
     iter. #   112  RMS(g-h-1)= 2.815E-04  nbox=  9
     iter. #   113  RMS(g-h-1)= 2.786E-04  nbox= 10
     iter. #   114  RMS(g-h-1)= 2.767E-04  nbox= 11
     iter. #   115  RMS(g-h-1)= 2.750E-04  nbox= 12
     iter. #   116  RMS(g-h-1)= 2.731E-04  nbox= 13
     iter. #   117  RMS(g-h-1)= 2.712E-04  nbox= 14
     iter. #   118  RMS(g-h-1)= 2.690E-04  nbox= 15
     iter. #   119  RMS(g-h-1)= 2.684E-04  nbox= 16
     iter. #   120  RMS(g-h-1)= 2.659E-04  nbox= 17
     iter. #   121  RMS(g-h-1)= 2.654E-04  nbox=  2
     iter. #   122  RMS(g-h-1)= 2.626E-04  nbox=  3
     iter. #   123  RMS(g-h-1)= 2.601E-04  nbox=  4
     iter. #   124  RMS(g-h-1)= 2.578E-04  nbox=  5
     iter. #   125  RMS(g-h-1)= 2.567E-04  nbox=  6
     iter. #   126  RMS(g-h-1)= 2.549E-04  nbox=  7
     iter. #   127  RMS(g-h-1)= 2.533E-04  nbox=  8
     iter. #   128  RMS(g-h-1)= 2.516E-04  nbox=  9
     iter. #   129  RMS(g-h-1)= 2.501E-04  nbox= 10
     iter. #   130  RMS(g-h-1)= 2.480E-04  nbox= 11
     iter. #   131  RMS(g-h-1)= 2.466E-04  nbox= 12
     iter. #   132  RMS(g-h-1)= 2.454E-04  nbox= 13
     iter. #   133  RMS(g-h-1)= 2.434E-04  nbox= 14
     iter. #   134  RMS(g-h-1)= 2.418E-04  nbox= 15
     iter. #   135  RMS(g-h-1)= 2.401E-04  nbox= 16
     iter. #   136  RMS(g-h-1)= 2.402E-04  nbox= 17
     iter. #   137  RMS(g-h-1)= 2.400E-04  nbox=  2
     iter. #   138  RMS(g-h-1)= 2.376E-04  nbox=  3
     iter. #   139  RMS(g-h-1)= 2.355E-04  nbox=  4
     iter. #   140  RMS(g-h-1)= 2.328E-04  nbox=  5
     iter. #   141  RMS(g-h-1)= 2.311E-04  nbox=  6
     iter. #   142  RMS(g-h-1)= 2.296E-04  nbox=  7
     iter. #   143  RMS(g-h-1)= 2.283E-04  nbox=  8
     iter. #   144  RMS(g-h-1)= 2.263E-04  nbox=  9
     iter. #   145  RMS(g-h-1)= 2.247E-04  nbox= 10
     iter. #   146  RMS(g-h-1)= 2.228E-04  nbox= 11
     iter. #   147  RMS(g-h-1)= 2.231E-04  nbox= 12
     iter. #   148  RMS(g-h-1)= 2.208E-04  nbox= 13
     iter. #   149  RMS(g-h-1)= 2.194E-04  nbox= 14
     iter. #   150  RMS(g-h-1)= 2.182E-04  nbox= 15
     iter. #   151  RMS(g-h-1)= 2.170E-04  nbox= 16
     iter. #   152  RMS(g-h-1)= 2.162E-04  nbox= 17
     iter. #   153  RMS(g-h-1)= 2.158E-04  nbox=  2
     iter. #   154  RMS(g-h-1)= 2.145E-04  nbox=  3
     iter. #   155  RMS(g-h-1)= 2.131E-04  nbox=  4
     iter. #   156  RMS(g-h-1)= 2.117E-04  nbox=  5
     iter. #   157  RMS(g-h-1)= 2.101E-04  nbox=  6
     iter. #   158  RMS(g-h-1)= 2.093E-04  nbox=  7
     iter. #   159  RMS(g-h-1)= 2.074E-04  nbox=  8
     iter. #   160  RMS(g-h-1)= 2.055E-04  nbox=  9
     iter. #   161  RMS(g-h-1)= 2.039E-04  nbox= 10
     iter. #   162  RMS(g-h-1)= 2.024E-04  nbox= 11
     iter. #   163  RMS(g-h-1)= 2.014E-04  nbox= 12
     iter. #   164  RMS(g-h-1)= 2.007E-04  nbox= 13
     iter. #   165  RMS(g-h-1)= 1.997E-04  nbox= 14
     iter. #   166  RMS(g-h-1)= 1.983E-04  nbox= 15
     iter. #   167  RMS(g-h-1)= 1.969E-04  nbox= 16
     iter. #   168  RMS(g-h-1)= 1.952E-04  nbox= 17
     iter. #   169  RMS(g-h-1)= 1.950E-04  nbox=  2
     iter. #   170  RMS(g-h-1)= 1.931E-04  nbox=  3
     iter. #   171  RMS(g-h-1)= 1.914E-04  nbox=  4
     iter. #   172  RMS(g-h-1)= 1.899E-04  nbox=  5
     iter. #   173  RMS(g-h-1)= 1.889E-04  nbox=  6
     iter. #   174  RMS(g-h-1)= 1.876E-04  nbox=  7
     iter. #   175  RMS(g-h-1)= 1.862E-04  nbox=  8
     iter. #   176  RMS(g-h-1)= 1.850E-04  nbox=  9
     iter. #   177  RMS(g-h-1)= 1.838E-04  nbox= 10
     iter. #   178  RMS(g-h-1)= 1.829E-04  nbox= 11
     iter. #   179  RMS(g-h-1)= 1.821E-04  nbox= 12
     iter. #   180  RMS(g-h-1)= 1.809E-04  nbox= 13
     iter. #   181  RMS(g-h-1)= 1.794E-04  nbox= 14
     iter. #   182  RMS(g-h-1)= 1.773E-04  nbox= 15
     iter. #   183  RMS(g-h-1)= 1.754E-04  nbox= 16
     iter. #   184  RMS(g-h-1)= 1.737E-04  nbox= 17
     iter. #   185  RMS(g-h-1)= 1.730E-04  nbox=  2
     iter. #   186  RMS(g-h-1)= 1.713E-04  nbox=  3
     iter. #   187  RMS(g-h-1)= 1.695E-04  nbox=  4
     iter. #   188  RMS(g-h-1)= 1.681E-04  nbox=  5
     iter. #   189  RMS(g-h-1)= 1.670E-04  nbox=  6
     iter. #   190  RMS(g-h-1)= 1.658E-04  nbox=  7
     iter. #   191  RMS(g-h-1)= 1.642E-04  nbox=  8
     iter. #   192  RMS(g-h-1)= 1.627E-04  nbox=  9
     iter. #   193  RMS(g-h-1)= 1.606E-04  nbox= 10
     iter. #   194  RMS(g-h-1)= 1.618E-04  nbox= 11
     iter. #   195  RMS(g-h-1)= 1.578E-04  nbox= 12
     iter. #   196  RMS(g-h-1)= 1.561E-04  nbox= 13
     iter. #   197  RMS(g-h-1)= 1.539E-04  nbox= 14
     iter. #   198  RMS(g-h-1)= 1.523E-04  nbox= 15
     iter. #   199  RMS(g-h-1)= 1.515E-04  nbox= 16
     iter. #   200  RMS(g-h-1)= 1.499E-04  nbox= 17
     iter. #   201  RMS(g-h-1)= 1.494E-04  nbox=  2
     iter. #   202  RMS(g-h-1)= 1.477E-04  nbox=  3
     iter. #   203  RMS(g-h-1)= 1.461E-04  nbox=  4
     iter. #   204  RMS(g-h-1)= 1.449E-04  nbox=  5
     iter. #   205  RMS(g-h-1)= 1.442E-04  nbox=  6
     iter. #   206  RMS(g-h-1)= 1.433E-04  nbox=  7
     iter. #   207  RMS(g-h-1)= 1.420E-04  nbox=  8
     iter. #   208  RMS(g-h-1)= 1.410E-04  nbox=  9
     iter. #   209  RMS(g-h-1)= 1.398E-04  nbox= 10
     iter. #   210  RMS(g-h-1)= 1.430E-04  nbox= 11
     iter. #   211  RMS(g-h-1)= 1.380E-04  nbox= 12
     iter. #   212  RMS(g-h-1)= 1.376E-04  nbox= 13
     iter. #   213  RMS(g-h-1)= 1.363E-04  nbox= 14
     iter. #   214  RMS(g-h-1)= 1.352E-04  nbox= 15
     iter. #   215  RMS(g-h-1)= 1.344E-04  nbox= 16
     iter. #   216  RMS(g-h-1)= 1.336E-04  nbox= 17
     iter. #   217  RMS(g-h-1)= 1.331E-04  nbox=  2
     iter. #   218  RMS(g-h-1)= 1.316E-04  nbox=  3
     iter. #   219  RMS(g-h-1)= 1.303E-04  nbox=  4
     iter. #   220  RMS(g-h-1)= 1.291E-04  nbox=  5
     iter. #   221  RMS(g-h-1)= 1.280E-04  nbox=  6
     iter. #   222  RMS(g-h-1)= 1.275E-04  nbox=  7
     iter. #   223  RMS(g-h-1)= 1.267E-04  nbox=  8
     iter. #   224  RMS(g-h-1)= 1.258E-04  nbox=  9
     iter. #   225  RMS(g-h-1)= 1.250E-04  nbox= 10
     iter. #   226  RMS(g-h-1)= 1.241E-04  nbox= 11
     iter. #   227  RMS(g-h-1)= 1.232E-04  nbox= 12
     iter. #   228  RMS(g-h-1)= 1.223E-04  nbox= 13
     iter. #   229  RMS(g-h-1)= 1.218E-04  nbox= 14
     iter. #   230  RMS(g-h-1)= 1.209E-04  nbox= 15
     iter. #   231  RMS(g-h-1)= 1.194E-04  nbox= 16
     iter. #   232  RMS(g-h-1)= 1.178E-04  nbox= 17
     iter. #   233  RMS(g-h-1)= 1.178E-04  nbox=  2
     iter. #   234  RMS(g-h-1)= 1.159E-04  nbox=  3
     iter. #   235  RMS(g-h-1)= 1.145E-04  nbox=  4
     iter. #   236  RMS(g-h-1)= 1.136E-04  nbox=  5
     iter. #   237  RMS(g-h-1)= 1.129E-04  nbox=  6
     iter. #   238  RMS(g-h-1)= 1.119E-04  nbox=  7
     iter. #   239  RMS(g-h-1)= 1.109E-04  nbox=  8
     iter. #   240  RMS(g-h-1)= 1.099E-04  nbox=  9
     iter. #   241  RMS(g-h-1)= 1.088E-04  nbox= 10
     iter. #   242  RMS(g-h-1)= 1.075E-04  nbox= 11
     iter. #   243  RMS(g-h-1)= 1.065E-04  nbox= 12
     iter. #   244  RMS(g-h-1)= 1.056E-04  nbox= 13
     iter. #   245  RMS(g-h-1)= 1.041E-04  nbox= 14
     iter. #   246  RMS(g-h-1)= 1.022E-04  nbox= 15
     iter. #   247  RMS(g-h-1)= 1.004E-04  nbox= 16
     iter. #   248  RMS(g-h-1)= 1.012E-04  nbox= 17
     iter. #   249  RMS(g-h-1)= 1.015E-04  nbox=  2
     iter. #   250  RMS(g-h-1)= 9.852E-05  nbox=  3
     iter. #   251  RMS(g-h-1)= 9.730E-05  nbox=  4
     iter. #   252  RMS(g-h-1)= 9.591E-05  nbox=  5
     iter. #   253  RMS(g-h-1)= 9.477E-05  nbox=  6
     iter. #   254  RMS(g-h-1)= 9.397E-05  nbox=  7
     iter. #   255  RMS(g-h-1)= 9.312E-05  nbox=  8
     iter. #   256  RMS(g-h-1)= 9.194E-05  nbox=  9
     iter. #   257  RMS(g-h-1)= 9.086E-05  nbox= 10
     iter. #   258  RMS(g-h-1)= 8.919E-05  nbox= 11
     iter. #   259  RMS(g-h-1)= 8.956E-05  nbox= 12
     iter. #   260  RMS(g-h-1)= 8.727E-05  nbox= 13
     iter. #   261  RMS(g-h-1)= 8.615E-05  nbox= 14
     iter. #   262  RMS(g-h-1)= 8.441E-05  nbox= 15
     iter. #   263  RMS(g-h-1)= 8.351E-05  nbox= 16
     iter. #   264  RMS(g-h-1)= 8.220E-05  nbox= 17
     iter. #   265  RMS(g-h-1)= 8.171E-05  nbox=  2
     iter. #   266  RMS(g-h-1)= 8.018E-05  nbox=  3
     iter. #   267  RMS(g-h-1)= 7.886E-05  nbox=  4
     iter. #   268  RMS(g-h-1)= 7.823E-05  nbox=  5
     iter. #   269  RMS(g-h-1)= 7.717E-05  nbox=  6
     iter. #   270  RMS(g-h-1)= 7.623E-05  nbox=  7
     iter. #   271  RMS(g-h-1)= 7.553E-05  nbox=  8
     iter. #   272  RMS(g-h-1)= 7.465E-05  nbox=  9
     iter. #   273  RMS(g-h-1)= 7.451E-05  nbox= 10
     iter. #   274  RMS(g-h-1)= 7.324E-05  nbox= 11
     iter. #   275  RMS(g-h-1)= 7.325E-05  nbox= 12
     iter. #   276  RMS(g-h-1)= 7.241E-05  nbox= 13
     iter. #   277  RMS(g-h-1)= 7.168E-05  nbox= 14
     iter. #   278  RMS(g-h-1)= 7.097E-05  nbox= 15
     iter. #   279  RMS(g-h-1)= 6.987E-05  nbox= 16
     iter. #   280  RMS(g-h-1)= 7.000E-05  nbox= 17
     iter. #   281  RMS(g-h-1)= 6.993E-05  nbox=  2
     iter. #   282  RMS(g-h-1)= 6.890E-05  nbox=  3
     iter. #   283  RMS(g-h-1)= 6.812E-05  nbox=  4
     iter. #   284  RMS(g-h-1)= 6.738E-05  nbox=  5
     iter. #   285  RMS(g-h-1)= 6.681E-05  nbox=  6
     iter. #   286  RMS(g-h-1)= 6.624E-05  nbox=  7
     iter. #   287  RMS(g-h-1)= 6.599E-05  nbox=  8
     iter. #   288  RMS(g-h-1)= 6.557E-05  nbox=  9
     iter. #   289  RMS(g-h-1)= 6.499E-05  nbox= 10
     iter. #   290  RMS(g-h-1)= 6.460E-05  nbox= 11
     iter. #   291  RMS(g-h-1)= 6.407E-05  nbox= 12
     iter. #   292  RMS(g-h-1)= 6.367E-05  nbox= 13
     iter. #   293  RMS(g-h-1)= 6.343E-05  nbox= 14
     iter. #   294  RMS(g-h-1)= 6.305E-05  nbox= 15
     iter. #   295  RMS(g-h-1)= 6.268E-05  nbox= 16
     iter. #   296  RMS(g-h-1)= 6.237E-05  nbox= 17
     iter. #   297  RMS(g-h-1)= 6.230E-05  nbox=  2
     iter. #   298  RMS(g-h-1)= 6.202E-05  nbox=  3
     iter. #   299  RMS(g-h-1)= 6.176E-05  nbox=  4
     iter. #   300  RMS(g-h-1)= 6.148E-05  nbox=  5
     iter. #   301  RMS(g-h-1)= 6.119E-05  nbox=  6
     iter. #   302  RMS(g-h-1)= 6.105E-05  nbox=  7
     iter. #   303  RMS(g-h-1)= 6.070E-05  nbox=  8
     iter. #   304  RMS(g-h-1)= 6.036E-05  nbox=  9
     iter. #   305  RMS(g-h-1)= 6.003E-05  nbox= 10
     iter. #   306  RMS(g-h-1)= 5.990E-05  nbox= 11
     iter. #   307  RMS(g-h-1)= 5.956E-05  nbox= 12
     iter. #   308  RMS(g-h-1)= 5.975E-05  nbox= 13
     iter. #   309  RMS(g-h-1)= 5.928E-05  nbox= 14
     iter. #   310  RMS(g-h-1)= 5.908E-05  nbox= 15
     iter. #   311  RMS(g-h-1)= 5.909E-05  nbox= 16
     iter. #   312  RMS(g-h-1)= 5.881E-05  nbox= 17
     iter. #   313  RMS(g-h-1)= 5.960E-05  nbox=  2
     iter. #   314  RMS(g-h-1)= 5.847E-05  nbox=  3
     iter. #   315  RMS(g-h-1)= 5.844E-05  nbox=  4
     iter. #   316  RMS(g-h-1)= 5.840E-05  nbox=  5
     iter. #   317  RMS(g-h-1)= 5.791E-05  nbox=  6
     iter. #   318  RMS(g-h-1)= 5.786E-05  nbox=  7
     iter. #   319  RMS(g-h-1)= 5.770E-05  nbox=  8
     iter. #   320  RMS(g-h-1)= 5.746E-05  nbox=  9
     iter. #   321  RMS(g-h-1)= 5.749E-05  nbox= 10
     iter. #   322  RMS(g-h-1)= 5.724E-05  nbox= 11
     iter. #   323  RMS(g-h-1)= 5.704E-05  nbox= 12
     iter. #   324  RMS(g-h-1)= 5.686E-05  nbox= 13
     iter. #   325  RMS(g-h-1)= 5.668E-05  nbox= 14
     iter. #   326  RMS(g-h-1)= 5.644E-05  nbox= 15
     iter. #   327  RMS(g-h-1)= 5.664E-05  nbox= 16
     iter. #   328  RMS(g-h-1)= 5.635E-05  nbox= 17
     iter. #   329  RMS(g-h-1)= 5.625E-05  nbox=  2
     iter. #   330  RMS(g-h-1)= 5.599E-05  nbox=  3
     iter. #   331  RMS(g-h-1)= 5.584E-05  nbox=  4
     iter. #   332  RMS(g-h-1)= 5.566E-05  nbox=  5
     iter. #   333  RMS(g-h-1)= 5.545E-05  nbox=  6
     iter. #   334  RMS(g-h-1)= 5.539E-05  nbox=  7
     iter. #   335  RMS(g-h-1)= 5.519E-05  nbox=  8
     iter. #   336  RMS(g-h-1)= 5.498E-05  nbox=  9
     iter. #   337  RMS(g-h-1)= 5.475E-05  nbox= 10
     iter. #   338  RMS(g-h-1)= 5.460E-05  nbox= 11
     iter. #   339  RMS(g-h-1)= 5.437E-05  nbox= 12
     iter. #   340  RMS(g-h-1)= 5.497E-05  nbox= 13
     iter. #   341  RMS(g-h-1)= 5.421E-05  nbox= 14
     iter. #   342  RMS(g-h-1)= 5.413E-05  nbox= 15
     iter. #   343  RMS(g-h-1)= 5.394E-05  nbox= 16
     iter. #   344  RMS(g-h-1)= 5.372E-05  nbox= 17
     iter. #   345  RMS(g-h-1)= 5.363E-05  nbox=  2
     iter. #   346  RMS(g-h-1)= 5.345E-05  nbox=  3
     iter. #   347  RMS(g-h-1)= 5.322E-05  nbox=  4
     iter. #   348  RMS(g-h-1)= 5.301E-05  nbox=  5
     iter. #   349  RMS(g-h-1)= 5.291E-05  nbox=  6
     iter. #   350  RMS(g-h-1)= 5.269E-05  nbox=  7
     iter. #   351  RMS(g-h-1)= 5.246E-05  nbox=  8
     iter. #   352  RMS(g-h-1)= 5.218E-05  nbox=  9
     iter. #   353  RMS(g-h-1)= 5.195E-05  nbox= 10
     iter. #   354  RMS(g-h-1)= 5.163E-05  nbox= 11
     iter. #   355  RMS(g-h-1)= 5.209E-05  nbox= 12
     iter. #   356  RMS(g-h-1)= 5.141E-05  nbox= 13
     iter. #   357  RMS(g-h-1)= 5.128E-05  nbox= 14
     iter. #   358  RMS(g-h-1)= 5.103E-05  nbox= 15
     iter. #   359  RMS(g-h-1)= 5.089E-05  nbox= 16
     iter. #   360  RMS(g-h-1)= 5.072E-05  nbox= 17
     iter. #   361  RMS(g-h-1)= 5.064E-05  nbox=  2
     iter. #   362  RMS(g-h-1)= 5.048E-05  nbox=  3
     iter. #   363  RMS(g-h-1)= 5.035E-05  nbox=  4
     iter. #   364  RMS(g-h-1)= 5.017E-05  nbox=  5
     iter. #   365  RMS(g-h-1)= 5.000E-05  nbox=  6
     iter. #   366  RMS(g-h-1)= 4.989E-05  nbox=  7
     iter. #   367  RMS(g-h-1)= 4.967E-05  nbox=  8
     iter. #   368  RMS(g-h-1)= 4.939E-05  nbox=  9
     iter. #   369  RMS(g-h-1)= 4.912E-05  nbox= 10
     iter. #   370  RMS(g-h-1)= 4.890E-05  nbox= 11
     iter. #   371  RMS(g-h-1)= 4.864E-05  nbox= 12
     iter. #   372  RMS(g-h-1)= 4.852E-05  nbox= 13
     iter. #   373  RMS(g-h-1)= 4.838E-05  nbox= 14
     iter. #   374  RMS(g-h-1)= 4.818E-05  nbox= 15
     iter. #   375  RMS(g-h-1)= 4.800E-05  nbox= 16
     iter. #   376  RMS(g-h-1)= 4.776E-05  nbox= 17
     iter. #   377  RMS(g-h-1)= 4.774E-05  nbox=  2
     iter. #   378  RMS(g-h-1)= 4.753E-05  nbox=  3
     iter. #   379  RMS(g-h-1)= 4.735E-05  nbox=  4
     iter. #   380  RMS(g-h-1)= 4.716E-05  nbox=  5
     iter. #   381  RMS(g-h-1)= 4.709E-05  nbox=  6
     iter. #   382  RMS(g-h-1)= 4.694E-05  nbox=  7
     iter. #   383  RMS(g-h-1)= 4.680E-05  nbox=  8
     iter. #   384  RMS(g-h-1)= 4.667E-05  nbox=  9
     iter. #   385  RMS(g-h-1)= 4.650E-05  nbox= 10
     iter. #   386  RMS(g-h-1)= 4.635E-05  nbox= 11
     iter. #   387  RMS(g-h-1)= 4.616E-05  nbox= 12
     iter. #   388  RMS(g-h-1)= 4.603E-05  nbox= 13
     iter. #   389  RMS(g-h-1)= 4.592E-05  nbox= 14
     iter. #   390  RMS(g-h-1)= 4.568E-05  nbox= 15
     iter. #   391  RMS(g-h-1)= 4.548E-05  nbox= 16
     iter. #   392  RMS(g-h-1)= 4.527E-05  nbox= 17
     iter. #   393  RMS(g-h-1)= 4.527E-05  nbox=  2
     iter. #   394  RMS(g-h-1)= 4.507E-05  nbox=  3
     iter. #   395  RMS(g-h-1)= 4.491E-05  nbox=  4
     iter. #   396  RMS(g-h-1)= 4.478E-05  nbox=  5
     iter. #   397  RMS(g-h-1)= 4.472E-05  nbox=  6
     iter. #   398  RMS(g-h-1)= 4.462E-05  nbox=  7
     iter. #   399  RMS(g-h-1)= 4.449E-05  nbox=  8
     iter. #   400  RMS(g-h-1)= 4.438E-05  nbox=  9
     iter. #   401  RMS(g-h-1)= 4.420E-05  nbox= 10
     iter. #   402  RMS(g-h-1)= 4.426E-05  nbox= 11
     iter. #   403  RMS(g-h-1)= 4.395E-05  nbox= 12
     iter. #   404  RMS(g-h-1)= 4.392E-05  nbox= 13
     iter. #   405  RMS(g-h-1)= 4.373E-05  nbox= 14
     iter. #   406  RMS(g-h-1)= 4.358E-05  nbox= 15
     iter. #   407  RMS(g-h-1)= 4.347E-05  nbox= 16
     iter. #   408  RMS(g-h-1)= 4.340E-05  nbox= 17
     iter. #   409  RMS(g-h-1)= 4.335E-05  nbox=  2
     iter. #   410  RMS(g-h-1)= 4.322E-05  nbox=  3
     iter. #   411  RMS(g-h-1)= 4.309E-05  nbox=  4
     iter. #   412  RMS(g-h-1)= 4.297E-05  nbox=  5
     iter. #   413  RMS(g-h-1)= 4.285E-05  nbox=  6
     iter. #   414  RMS(g-h-1)= 4.275E-05  nbox=  7
     iter. #   415  RMS(g-h-1)= 4.269E-05  nbox=  8
     iter. #   416  RMS(g-h-1)= 4.263E-05  nbox=  9
     iter. #   417  RMS(g-h-1)= 4.252E-05  nbox= 10
     iter. #   418  RMS(g-h-1)= 4.240E-05  nbox= 11
     iter. #   419  RMS(g-h-1)= 4.228E-05  nbox= 12
     iter. #   420  RMS(g-h-1)= 4.214E-05  nbox= 13
     iter. #   421  RMS(g-h-1)= 4.207E-05  nbox= 14
     iter. #   422  RMS(g-h-1)= 4.194E-05  nbox= 15
     iter. #   423  RMS(g-h-1)= 4.181E-05  nbox= 16
     iter. #   424  RMS(g-h-1)= 4.167E-05  nbox= 17
     iter. #   425  RMS(g-h-1)= 4.164E-05  nbox=  2
     iter. #   426  RMS(g-h-1)= 4.148E-05  nbox=  3
     iter. #   427  RMS(g-h-1)= 4.138E-05  nbox=  4
     iter. #   428  RMS(g-h-1)= 4.126E-05  nbox=  5
     iter. #   429  RMS(g-h-1)= 4.120E-05  nbox=  6
     iter. #   430  RMS(g-h-1)= 4.113E-05  nbox=  7
     iter. #   431  RMS(g-h-1)= 4.104E-05  nbox=  8
     iter. #   432  RMS(g-h-1)= 4.093E-05  nbox=  9
     iter. #   433  RMS(g-h-1)= 4.079E-05  nbox= 10
     iter. #   434  RMS(g-h-1)= 4.067E-05  nbox= 11
     iter. #   435  RMS(g-h-1)= 4.055E-05  nbox= 12
     iter. #   436  RMS(g-h-1)= 4.049E-05  nbox= 13
     iter. #   437  RMS(g-h-1)= 4.036E-05  nbox= 14
     iter. #   438  RMS(g-h-1)= 4.020E-05  nbox= 15
     iter. #   439  RMS(g-h-1)= 4.004E-05  nbox= 16
     iter. #   440  RMS(g-h-1)= 3.991E-05  nbox= 17
     iter. #   441  RMS(g-h-1)= 3.987E-05  nbox=  2
     iter. #   442  RMS(g-h-1)= 3.969E-05  nbox=  3
     iter. #   443  RMS(g-h-1)= 3.955E-05  nbox=  4
     iter. #   444  RMS(g-h-1)= 3.941E-05  nbox=  5
     iter. #   445  RMS(g-h-1)= 3.932E-05  nbox=  6
     iter. #   446  RMS(g-h-1)= 3.917E-05  nbox=  7
     iter. #   447  RMS(g-h-1)= 3.898E-05  nbox=  8
     iter. #   448  RMS(g-h-1)= 3.880E-05  nbox=  9
     iter. #   449  RMS(g-h-1)= 3.860E-05  nbox= 10
     iter. #   450  RMS(g-h-1)= 3.837E-05  nbox= 11
     iter. #   451  RMS(g-h-1)= 3.818E-05  nbox= 12
     iter. #   452  RMS(g-h-1)= 3.805E-05  nbox= 13
     iter. #   453  RMS(g-h-1)= 3.784E-05  nbox= 14
     iter. #   454  RMS(g-h-1)= 3.765E-05  nbox= 15
     iter. #   455  RMS(g-h-1)= 3.746E-05  nbox= 16
     iter. #   456  RMS(g-h-1)= 3.719E-05  nbox= 17
     iter. #   457  RMS(g-h-1)= 3.716E-05  nbox=  2
     iter. #   458  RMS(g-h-1)= 3.688E-05  nbox=  3
     iter. #   459  RMS(g-h-1)= 3.666E-05  nbox=  4
     iter. #   460  RMS(g-h-1)= 3.644E-05  nbox=  5
     iter. #   461  RMS(g-h-1)= 3.630E-05  nbox=  6
     iter. #   462  RMS(g-h-1)= 3.614E-05  nbox=  7
     iter. #   463  RMS(g-h-1)= 3.594E-05  nbox=  8
     iter. #   464  RMS(g-h-1)= 3.576E-05  nbox=  9
     iter. #   465  RMS(g-h-1)= 3.557E-05  nbox= 10
     iter. #   466  RMS(g-h-1)= 3.541E-05  nbox= 11
     iter. #   467  RMS(g-h-1)= 3.525E-05  nbox= 12
     iter. #   468  RMS(g-h-1)= 3.514E-05  nbox= 13
     iter. #   469  RMS(g-h-1)= 3.502E-05  nbox= 14
     iter. #   470  RMS(g-h-1)= 3.486E-05  nbox= 15
     iter. #   471  RMS(g-h-1)= 3.471E-05  nbox= 16
     iter. #   472  RMS(g-h-1)= 3.455E-05  nbox= 17
     iter. #   473  RMS(g-h-1)= 3.452E-05  nbox=  2
     iter. #   474  RMS(g-h-1)= 3.434E-05  nbox=  3
     iter. #   475  RMS(g-h-1)= 3.421E-05  nbox=  4
     iter. #   476  RMS(g-h-1)= 3.408E-05  nbox=  5
     iter. #   477  RMS(g-h-1)= 3.397E-05  nbox=  6
     iter. #   478  RMS(g-h-1)= 3.392E-05  nbox=  7
     iter. #   479  RMS(g-h-1)= 3.382E-05  nbox=  8
     iter. #   480  RMS(g-h-1)= 3.372E-05  nbox=  9
     iter. #   481  RMS(g-h-1)= 3.361E-05  nbox= 10
     iter. #   482  RMS(g-h-1)= 3.347E-05  nbox= 11
     iter. #   483  RMS(g-h-1)= 3.334E-05  nbox= 12
     iter. #   484  RMS(g-h-1)= 3.321E-05  nbox= 13
     iter. #   485  RMS(g-h-1)= 3.312E-05  nbox= 14
     iter. #   486  RMS(g-h-1)= 3.300E-05  nbox= 15
     iter. #   487  RMS(g-h-1)= 3.286E-05  nbox= 16
     iter. #   488  RMS(g-h-1)= 3.272E-05  nbox= 17
     iter. #   489  RMS(g-h-1)= 3.270E-05  nbox=  2
     iter. #   490  RMS(g-h-1)= 3.257E-05  nbox=  3
     iter. #   491  RMS(g-h-1)= 3.246E-05  nbox=  4
     iter. #   492  RMS(g-h-1)= 3.235E-05  nbox=  5
     iter. #   493  RMS(g-h-1)= 3.226E-05  nbox=  6
     iter. #   494  RMS(g-h-1)= 3.222E-05  nbox=  7
     iter. #   495  RMS(g-h-1)= 3.215E-05  nbox=  8
     iter. #   496  RMS(g-h-1)= 3.206E-05  nbox=  9
     iter. #   497  RMS(g-h-1)= 3.196E-05  nbox= 10
     iter. #   498  RMS(g-h-1)= 3.185E-05  nbox= 11
     iter. #   499  RMS(g-h-1)= 3.175E-05  nbox= 12
     iter. #   500  RMS(g-h-1)= 3.165E-05  nbox= 13
     iter. #   501  RMS(g-h-1)= 3.157E-05  nbox= 14
     iter. #   502  RMS(g-h-1)= 3.151E-05  nbox= 15
     iter. #   503  RMS(g-h-1)= 3.144E-05  nbox= 16
     iter. #   504  RMS(g-h-1)= 3.137E-05  nbox= 17
     iter. #   505  RMS(g-h-1)= 3.136E-05  nbox=  2
     iter. #   506  RMS(g-h-1)= 3.129E-05  nbox=  3
     iter. #   507  RMS(g-h-1)= 3.123E-05  nbox=  4
     iter. #   508  RMS(g-h-1)= 3.117E-05  nbox=  5
     iter. #   509  RMS(g-h-1)= 3.118E-05  nbox=  6
     iter. #   510  RMS(g-h-1)= 3.109E-05  nbox=  7
     iter. #   511  RMS(g-h-1)= 3.107E-05  nbox=  8
     iter. #   512  RMS(g-h-1)= 3.102E-05  nbox=  9
     iter. #   513  RMS(g-h-1)= 3.099E-05  nbox= 10
     iter. #   514  RMS(g-h-1)= 3.095E-05  nbox= 11
     iter. #   515  RMS(g-h-1)= 3.091E-05  nbox= 12
     iter. #   516  RMS(g-h-1)= 3.088E-05  nbox= 13
     iter. #   517  RMS(g-h-1)= 3.084E-05  nbox= 14
     iter. #   518  RMS(g-h-1)= 3.082E-05  nbox= 15
     iter. #   519  RMS(g-h-1)= 3.079E-05  nbox= 16
     iter. #   520  RMS(g-h-1)= 3.076E-05  nbox= 17
     iter. #   521  RMS(g-h-1)= 3.075E-05  nbox=  2
     iter. #   522  RMS(g-h-1)= 3.071E-05  nbox=  3
     iter. #   523  RMS(g-h-1)= 3.068E-05  nbox=  4
     iter. #   524  RMS(g-h-1)= 3.065E-05  nbox=  5
     iter. #   525  RMS(g-h-1)= 3.061E-05  nbox=  6
     iter. #   526  RMS(g-h-1)= 3.057E-05  nbox=  7
     iter. #   527  RMS(g-h-1)= 3.056E-05  nbox=  8
     iter. #   528  RMS(g-h-1)= 3.052E-05  nbox=  9
     iter. #   529  RMS(g-h-1)= 3.048E-05  nbox= 10
     iter. #   530  RMS(g-h-1)= 3.044E-05  nbox= 11
     iter. #   531  RMS(g-h-1)= 3.039E-05  nbox= 12
     iter. #   532  RMS(g-h-1)= 3.034E-05  nbox= 13
     iter. #   533  RMS(g-h-1)= 3.028E-05  nbox= 14
     iter. #   534  RMS(g-h-1)= 3.023E-05  nbox= 15
     iter. #   535  RMS(g-h-1)= 3.019E-05  nbox= 16
     iter. #   536  RMS(g-h-1)= 3.015E-05  nbox= 17
     iter. #   537  RMS(g-h-1)= 3.013E-05  nbox=  2
     iter. #   538  RMS(g-h-1)= 3.007E-05  nbox=  3
     iter. #   539  RMS(g-h-1)= 2.999E-05  nbox=  4
     iter. #   540  RMS(g-h-1)= 2.992E-05  nbox=  5
     iter. #   541  RMS(g-h-1)= 2.986E-05  nbox=  6
     iter. #   542  RMS(g-h-1)= 2.978E-05  nbox=  7
     iter. #   543  RMS(g-h-1)= 2.973E-05  nbox=  8
     iter. #   544  RMS(g-h-1)= 2.967E-05  nbox=  9
     iter. #   545  RMS(g-h-1)= 2.958E-05  nbox= 10
     iter. #   546  RMS(g-h-1)= 2.950E-05  nbox= 11
     iter. #   547  RMS(g-h-1)= 2.940E-05  nbox= 12
     iter. #   548  RMS(g-h-1)= 2.929E-05  nbox= 13
     iter. #   549  RMS(g-h-1)= 2.919E-05  nbox= 14
     iter. #   550  RMS(g-h-1)= 2.909E-05  nbox= 15
     iter. #   551  RMS(g-h-1)= 2.904E-05  nbox= 16
     iter. #   552  RMS(g-h-1)= 2.893E-05  nbox= 17
     iter. #   553  RMS(g-h-1)= 2.890E-05  nbox=  2
     iter. #   554  RMS(g-h-1)= 2.878E-05  nbox=  3
     iter. #   555  RMS(g-h-1)= 2.867E-05  nbox=  4
     iter. #   556  RMS(g-h-1)= 2.857E-05  nbox=  5
     iter. #   557  RMS(g-h-1)= 2.848E-05  nbox=  6
     iter. #   558  RMS(g-h-1)= 2.843E-05  nbox=  7
     iter. #   559  RMS(g-h-1)= 2.835E-05  nbox=  8
     iter. #   560  RMS(g-h-1)= 2.825E-05  nbox=  9
     iter. #   561  RMS(g-h-1)= 2.815E-05  nbox= 10
     iter. #   562  RMS(g-h-1)= 2.803E-05  nbox= 11
     iter. #   563  RMS(g-h-1)= 2.794E-05  nbox= 12
     iter. #   564  RMS(g-h-1)= 2.785E-05  nbox= 13
     iter. #   565  RMS(g-h-1)= 2.778E-05  nbox= 14
     iter. #   566  RMS(g-h-1)= 2.773E-05  nbox= 15
     iter. #   567  RMS(g-h-1)= 2.768E-05  nbox= 16
     iter. #   568  RMS(g-h-1)= 2.762E-05  nbox= 17
     iter. #   569  RMS(g-h-1)= 2.760E-05  nbox=  2
     iter. #   570  RMS(g-h-1)= 2.753E-05  nbox=  3
     iter. #   571  RMS(g-h-1)= 2.747E-05  nbox=  4
     iter. #   572  RMS(g-h-1)= 2.740E-05  nbox=  5
     iter. #   573  RMS(g-h-1)= 2.733E-05  nbox=  6
     iter. #   574  RMS(g-h-1)= 2.727E-05  nbox=  7
     iter. #   575  RMS(g-h-1)= 2.722E-05  nbox=  8
     iter. #   576  RMS(g-h-1)= 2.715E-05  nbox=  9
     iter. #   577  RMS(g-h-1)= 2.706E-05  nbox= 10
     iter. #   578  RMS(g-h-1)= 2.698E-05  nbox= 11
     iter. #   579  RMS(g-h-1)= 2.689E-05  nbox= 12
     iter. #   580  RMS(g-h-1)= 2.678E-05  nbox= 13
     iter. #   581  RMS(g-h-1)= 2.668E-05  nbox= 14
     iter. #   582  RMS(g-h-1)= 2.659E-05  nbox= 15
     iter. #   583  RMS(g-h-1)= 2.651E-05  nbox= 16
     iter. #   584  RMS(g-h-1)= 2.640E-05  nbox= 17
     iter. #   585  RMS(g-h-1)= 2.637E-05  nbox=  2
     iter. #   586  RMS(g-h-1)= 2.622E-05  nbox=  3
     iter. #   587  RMS(g-h-1)= 2.610E-05  nbox=  4
     iter. #   588  RMS(g-h-1)= 2.596E-05  nbox=  5
     iter. #   589  RMS(g-h-1)= 2.584E-05  nbox=  6
     iter. #   590  RMS(g-h-1)= 2.577E-05  nbox=  7
     iter. #   591  RMS(g-h-1)= 2.566E-05  nbox=  8
     iter. #   592  RMS(g-h-1)= 2.551E-05  nbox=  9
     iter. #   593  RMS(g-h-1)= 2.537E-05  nbox= 10
     iter. #   594  RMS(g-h-1)= 2.521E-05  nbox= 11
     iter. #   595  RMS(g-h-1)= 2.505E-05  nbox= 12
     iter. #   596  RMS(g-h-1)= 2.490E-05  nbox= 13
     iter. #   597  RMS(g-h-1)= 2.481E-05  nbox= 14
     iter. #   598  RMS(g-h-1)= 2.468E-05  nbox= 15
     iter. #   599  RMS(g-h-1)= 2.450E-05  nbox= 16
     iter. #   600  RMS(g-h-1)= 2.434E-05  nbox= 17
     iter. #   601  RMS(g-h-1)= 2.430E-05  nbox=  2
     iter. #   602  RMS(g-h-1)= 2.413E-05  nbox=  3
     iter. #   603  RMS(g-h-1)= 2.396E-05  nbox=  4
     iter. #   604  RMS(g-h-1)= 2.379E-05  nbox=  5
     iter. #   605  RMS(g-h-1)= 2.362E-05  nbox=  6
     iter. #   606  RMS(g-h-1)= 2.348E-05  nbox=  7
     iter. #   607  RMS(g-h-1)= 2.337E-05  nbox=  8
     iter. #   608  RMS(g-h-1)= 2.325E-05  nbox=  9
     iter. #   609  RMS(g-h-1)= 2.309E-05  nbox= 10
     iter. #   610  RMS(g-h-1)= 2.291E-05  nbox= 11
     iter. #   611  RMS(g-h-1)= 2.274E-05  nbox= 12
     iter. #   612  RMS(g-h-1)= 2.256E-05  nbox= 13
     iter. #   613  RMS(g-h-1)= 2.241E-05  nbox= 14
     iter. #   614  RMS(g-h-1)= 2.233E-05  nbox= 15
     iter. #   615  RMS(g-h-1)= 2.215E-05  nbox= 16
     iter. #   616  RMS(g-h-1)= 2.198E-05  nbox= 17
     iter. #   617  RMS(g-h-1)= 2.196E-05  nbox=  2
     iter. #   618  RMS(g-h-1)= 2.177E-05  nbox=  3
     iter. #   619  RMS(g-h-1)= 2.161E-05  nbox=  4
     iter. #   620  RMS(g-h-1)= 2.146E-05  nbox=  5
     iter. #   621  RMS(g-h-1)= 2.127E-05  nbox=  6
     iter. #   622  RMS(g-h-1)= 2.126E-05  nbox=  7
     iter. #   623  RMS(g-h-1)= 2.106E-05  nbox=  8
     iter. #   624  RMS(g-h-1)= 2.094E-05  nbox=  9
     iter. #   625  RMS(g-h-1)= 2.080E-05  nbox= 10
     iter. #   626  RMS(g-h-1)= 2.067E-05  nbox= 11
     iter. #   627  RMS(g-h-1)= 2.053E-05  nbox= 12
     iter. #   628  RMS(g-h-1)= 2.041E-05  nbox= 13
     iter. #   629  RMS(g-h-1)= 2.030E-05  nbox= 14
     iter. #   630  RMS(g-h-1)= 2.025E-05  nbox= 15
     iter. #   631  RMS(g-h-1)= 2.015E-05  nbox= 16
     iter. #   632  RMS(g-h-1)= 2.005E-05  nbox= 17
     iter. #   633  RMS(g-h-1)= 2.003E-05  nbox=  2
     iter. #   634  RMS(g-h-1)= 1.992E-05  nbox=  3
     iter. #   635  RMS(g-h-1)= 1.984E-05  nbox=  4
     iter. #   636  RMS(g-h-1)= 1.975E-05  nbox=  5
     iter. #   637  RMS(g-h-1)= 1.966E-05  nbox=  6
     iter. #   638  RMS(g-h-1)= 1.963E-05  nbox=  7
     iter. #   639  RMS(g-h-1)= 1.954E-05  nbox=  8
     iter. #   640  RMS(g-h-1)= 1.946E-05  nbox=  9
     iter. #   641  RMS(g-h-1)= 1.938E-05  nbox= 10
     iter. #   642  RMS(g-h-1)= 1.931E-05  nbox= 11
     iter. #   643  RMS(g-h-1)= 1.924E-05  nbox= 12
     iter. #   644  RMS(g-h-1)= 1.921E-05  nbox= 13
     iter. #   645  RMS(g-h-1)= 1.914E-05  nbox= 14
     iter. #   646  RMS(g-h-1)= 1.911E-05  nbox= 15
     iter. #   647  RMS(g-h-1)= 1.905E-05  nbox= 16
     iter. #   648  RMS(g-h-1)= 1.900E-05  nbox= 17
     iter. #   649  RMS(g-h-1)= 1.900E-05  nbox=  2
     iter. #   650  RMS(g-h-1)= 1.894E-05  nbox=  3
     iter. #   651  RMS(g-h-1)= 1.890E-05  nbox=  4
     iter. #   652  RMS(g-h-1)= 1.886E-05  nbox=  5
     iter. #   653  RMS(g-h-1)= 1.882E-05  nbox=  6
     iter. #   654  RMS(g-h-1)= 1.881E-05  nbox=  7
     iter. #   655  RMS(g-h-1)= 1.877E-05  nbox=  8
     iter. #   656  RMS(g-h-1)= 1.874E-05  nbox=  9
     iter. #   657  RMS(g-h-1)= 1.871E-05  nbox= 10
     iter. #   658  RMS(g-h-1)= 1.872E-05  nbox= 11
     iter. #   659  RMS(g-h-1)= 1.866E-05  nbox= 12
     iter. #   660  RMS(g-h-1)= 1.867E-05  nbox= 13
     iter. #   661  RMS(g-h-1)= 1.862E-05  nbox= 14
     iter. #   662  RMS(g-h-1)= 1.860E-05  nbox= 15
     iter. #   663  RMS(g-h-1)= 1.856E-05  nbox= 16
     iter. #   664  RMS(g-h-1)= 1.853E-05  nbox= 17
     iter. #   665  RMS(g-h-1)= 1.853E-05  nbox=  2
     iter. #   666  RMS(g-h-1)= 1.849E-05  nbox=  3
     iter. #   667  RMS(g-h-1)= 1.845E-05  nbox=  4
     iter. #   668  RMS(g-h-1)= 1.842E-05  nbox=  5
     iter. #   669  RMS(g-h-1)= 1.838E-05  nbox=  6
     iter. #   670  RMS(g-h-1)= 1.836E-05  nbox=  7
     iter. #   671  RMS(g-h-1)= 1.833E-05  nbox=  8
     iter. #   672  RMS(g-h-1)= 1.830E-05  nbox=  9
     iter. #   673  RMS(g-h-1)= 1.826E-05  nbox= 10
     iter. #   674  RMS(g-h-1)= 1.823E-05  nbox= 11
     iter. #   675  RMS(g-h-1)= 1.819E-05  nbox= 12
     iter. #   676  RMS(g-h-1)= 1.815E-05  nbox= 13
     iter. #   677  RMS(g-h-1)= 1.810E-05  nbox= 14
     iter. #   678  RMS(g-h-1)= 1.807E-05  nbox= 15
     iter. #   679  RMS(g-h-1)= 1.803E-05  nbox= 16
     iter. #   680  RMS(g-h-1)= 1.796E-05  nbox= 17
     iter. #   681  RMS(g-h-1)= 1.795E-05  nbox=  2
     iter. #   682  RMS(g-h-1)= 1.786E-05  nbox=  3
     iter. #   683  RMS(g-h-1)= 1.777E-05  nbox=  4
     iter. #   684  RMS(g-h-1)= 1.767E-05  nbox=  5
     iter. #   685  RMS(g-h-1)= 1.760E-05  nbox=  6
     iter. #   686  RMS(g-h-1)= 1.752E-05  nbox=  7
     iter. #   687  RMS(g-h-1)= 1.742E-05  nbox=  8
     iter. #   688  RMS(g-h-1)= 1.728E-05  nbox=  9
     iter. #   689  RMS(g-h-1)= 1.715E-05  nbox= 10
     iter. #   690  RMS(g-h-1)= 1.700E-05  nbox= 11
     iter. #   691  RMS(g-h-1)= 1.691E-05  nbox= 12
     iter. #   692  RMS(g-h-1)= 1.674E-05  nbox= 13
     iter. #   693  RMS(g-h-1)= 1.673E-05  nbox= 14
     iter. #   694  RMS(g-h-1)= 1.657E-05  nbox= 15
     iter. #   695  RMS(g-h-1)= 1.645E-05  nbox= 16
     iter. #   696  RMS(g-h-1)= 1.630E-05  nbox= 17
     iter. #   697  RMS(g-h-1)= 1.628E-05  nbox=  2
     iter. #   698  RMS(g-h-1)= 1.610E-05  nbox=  3
     iter. #   699  RMS(g-h-1)= 1.593E-05  nbox=  4
     iter. #   700  RMS(g-h-1)= 1.586E-05  nbox=  5
     iter. #   701  RMS(g-h-1)= 1.569E-05  nbox=  6
     iter. #   702  RMS(g-h-1)= 1.557E-05  nbox=  7
     iter. #   703  RMS(g-h-1)= 1.540E-05  nbox=  8
     iter. #   704  RMS(g-h-1)= 1.525E-05  nbox=  9
     iter. #   705  RMS(g-h-1)= 1.508E-05  nbox= 10
     iter. #   706  RMS(g-h-1)= 1.497E-05  nbox= 11
     iter. #   707  RMS(g-h-1)= 1.488E-05  nbox= 12
     iter. #   708  RMS(g-h-1)= 1.478E-05  nbox= 13
     iter. #   709  RMS(g-h-1)= 1.465E-05  nbox= 14
     iter. #   710  RMS(g-h-1)= 1.453E-05  nbox= 15
     iter. #   711  RMS(g-h-1)= 1.444E-05  nbox= 16
     iter. #   712  RMS(g-h-1)= 1.430E-05  nbox= 17
     iter. #   713  RMS(g-h-1)= 1.428E-05  nbox=  2
     iter. #   714  RMS(g-h-1)= 1.416E-05  nbox=  3
     iter. #   715  RMS(g-h-1)= 1.405E-05  nbox=  4
     iter. #   716  RMS(g-h-1)= 1.394E-05  nbox=  5
     iter. #   717  RMS(g-h-1)= 1.382E-05  nbox=  6
     iter. #   718  RMS(g-h-1)= 1.380E-05  nbox=  7
     iter. #   719  RMS(g-h-1)= 1.368E-05  nbox=  8
     iter. #   720  RMS(g-h-1)= 1.358E-05  nbox=  9
     iter. #   721  RMS(g-h-1)= 1.347E-05  nbox= 10
     iter. #   722  RMS(g-h-1)= 1.339E-05  nbox= 11
     iter. #   723  RMS(g-h-1)= 1.330E-05  nbox= 12
     iter. #   724  RMS(g-h-1)= 1.322E-05  nbox= 13
     iter. #   725  RMS(g-h-1)= 1.318E-05  nbox= 14
     iter. #   726  RMS(g-h-1)= 1.308E-05  nbox= 15
     iter. #   727  RMS(g-h-1)= 1.299E-05  nbox= 16
     iter. #   728  RMS(g-h-1)= 1.291E-05  nbox= 17
     iter. #   729  RMS(g-h-1)= 1.288E-05  nbox=  2
     iter. #   730  RMS(g-h-1)= 1.278E-05  nbox=  3
     iter. #   731  RMS(g-h-1)= 1.270E-05  nbox=  4
     iter. #   732  RMS(g-h-1)= 1.261E-05  nbox=  5
     iter. #   733  RMS(g-h-1)= 1.255E-05  nbox=  6
     iter. #   734  RMS(g-h-1)= 1.250E-05  nbox=  7
     iter. #   735  RMS(g-h-1)= 1.242E-05  nbox=  8
     iter. #   736  RMS(g-h-1)= 1.235E-05  nbox=  9
     iter. #   737  RMS(g-h-1)= 1.226E-05  nbox= 10
     iter. #   738  RMS(g-h-1)= 1.227E-05  nbox= 11
     iter. #   739  RMS(g-h-1)= 1.215E-05  nbox= 12
     iter. #   740  RMS(g-h-1)= 1.211E-05  nbox= 13
     iter. #   741  RMS(g-h-1)= 1.204E-05  nbox= 14
     iter. #   742  RMS(g-h-1)= 1.197E-05  nbox= 15
     iter. #   743  RMS(g-h-1)= 1.191E-05  nbox= 16
     iter. #   744  RMS(g-h-1)= 1.186E-05  nbox= 17
     iter. #   745  RMS(g-h-1)= 1.185E-05  nbox=  2
     iter. #   746  RMS(g-h-1)= 1.178E-05  nbox=  3
     iter. #   747  RMS(g-h-1)= 1.174E-05  nbox=  4
     iter. #   748  RMS(g-h-1)= 1.167E-05  nbox=  5
     iter. #   749  RMS(g-h-1)= 1.163E-05  nbox=  6
     iter. #   750  RMS(g-h-1)= 1.160E-05  nbox=  7
     iter. #   751  RMS(g-h-1)= 1.155E-05  nbox=  8
     iter. #   752  RMS(g-h-1)= 1.149E-05  nbox=  9
     iter. #   753  RMS(g-h-1)= 1.143E-05  nbox= 10
     iter. #   754  RMS(g-h-1)= 1.138E-05  nbox= 11
     iter. #   755  RMS(g-h-1)= 1.135E-05  nbox= 12
     iter. #   756  RMS(g-h-1)= 1.128E-05  nbox= 13
     iter. #   757  RMS(g-h-1)= 1.129E-05  nbox= 14
     iter. #   758  RMS(g-h-1)= 1.122E-05  nbox= 15
     iter. #   759  RMS(g-h-1)= 1.118E-05  nbox= 16
     iter. #   760  RMS(g-h-1)= 1.114E-05  nbox= 17
     iter. #   761  RMS(g-h-1)= 1.114E-05  nbox=  2
     iter. #   762  RMS(g-h-1)= 1.109E-05  nbox=  3
     iter. #   763  RMS(g-h-1)= 1.105E-05  nbox=  4
     iter. #   764  RMS(g-h-1)= 1.101E-05  nbox=  5
     iter. #   765  RMS(g-h-1)= 1.098E-05  nbox=  6
     iter. #   766  RMS(g-h-1)= 1.095E-05  nbox=  7
     iter. #   767  RMS(g-h-1)= 1.094E-05  nbox=  8
     iter. #   768  RMS(g-h-1)= 1.090E-05  nbox=  9
     iter. #   769  RMS(g-h-1)= 1.087E-05  nbox= 10
     iter. #   770  RMS(g-h-1)= 1.084E-05  nbox= 11
     iter. #   771  RMS(g-h-1)= 1.081E-05  nbox= 12
     iter. #   772  RMS(g-h-1)= 1.078E-05  nbox= 13
     iter. #   773  RMS(g-h-1)= 1.075E-05  nbox= 14
     iter. #   774  RMS(g-h-1)= 1.072E-05  nbox= 15
     iter. #   775  RMS(g-h-1)= 1.070E-05  nbox= 16
     iter. #   776  RMS(g-h-1)= 1.067E-05  nbox= 17
     iter. #   777  RMS(g-h-1)= 1.066E-05  nbox=  2
     iter. #   778  RMS(g-h-1)= 1.062E-05  nbox=  3
     iter. #   779  RMS(g-h-1)= 1.059E-05  nbox=  4
     iter. #   780  RMS(g-h-1)= 1.056E-05  nbox=  5
     iter. #   781  RMS(g-h-1)= 1.053E-05  nbox=  6
     iter. #   782  RMS(g-h-1)= 1.050E-05  nbox=  7
     iter. #   783  RMS(g-h-1)= 1.048E-05  nbox=  8
     iter. #   784  RMS(g-h-1)= 1.046E-05  nbox=  9
     iter. #   785  RMS(g-h-1)= 1.042E-05  nbox= 10
     iter. #   786  RMS(g-h-1)= 1.039E-05  nbox= 11
     iter. #   787  RMS(g-h-1)= 1.037E-05  nbox= 12
     iter. #   788  RMS(g-h-1)= 1.034E-05  nbox= 13
     iter. #   789  RMS(g-h-1)= 1.039E-05  nbox= 14
     iter. #   790  RMS(g-h-1)= 1.029E-05  nbox= 15
     iter. #   791  RMS(g-h-1)= 1.029E-05  nbox= 16
     iter. #   792  RMS(g-h-1)= 1.026E-05  nbox= 17
     iter. #   793  RMS(g-h-1)= 1.026E-05  nbox=  2
     iter. #   794  RMS(g-h-1)= 1.023E-05  nbox=  3
     iter. #   795  RMS(g-h-1)= 1.021E-05  nbox=  4
     iter. #   796  RMS(g-h-1)= 1.019E-05  nbox=  5
     iter. #   797  RMS(g-h-1)= 1.017E-05  nbox=  6
     iter. #   798  RMS(g-h-1)= 1.015E-05  nbox=  7
     iter. #   799  RMS(g-h-1)= 1.014E-05  nbox=  8
     iter. #   800  RMS(g-h-1)= 1.013E-05  nbox=  9
     iter. #   801  RMS(g-h-1)= 1.011E-05  nbox= 10
     iter. #   802  RMS(g-h-1)= 1.009E-05  nbox= 11
     iter. #   803  RMS(g-h-1)= 1.007E-05  nbox= 12
     iter. #   804  RMS(g-h-1)= 1.006E-05  nbox= 13
     iter. #   805  RMS(g-h-1)= 1.003E-05  nbox= 14
     iter. #   806  RMS(g-h-1)= 1.004E-05  nbox= 15
     iter. #   807  RMS(g-h-1)= 1.000E-05  nbox= 16
     iter. #   808  RMS(g-h-1)= 9.987E-06  nbox= 17
     iter. #   809  RMS(g-h-1)= 9.980E-06  nbox=  2
     iter. #   810  RMS(g-h-1)= 9.960E-06  nbox=  3
     iter. #   811  RMS(g-h-1)= 9.938E-06  nbox=  4
     iter. #   812  RMS(g-h-1)= 9.917E-06  nbox=  5
     iter. #   813  RMS(g-h-1)= 9.894E-06  nbox=  6
     iter. #   814  RMS(g-h-1)= 9.877E-06  nbox=  7
     iter. #   815  RMS(g-h-1)= 9.855E-06  nbox=  8
     iter. #   816  RMS(g-h-1)= 9.849E-06  nbox=  9
     iter. #   817  RMS(g-h-1)= 9.828E-06  nbox= 10
     iter. #   818  RMS(g-h-1)= 9.810E-06  nbox= 11
     iter. #   819  RMS(g-h-1)= 9.794E-06  nbox= 12
     iter. #   820  RMS(g-h-1)= 9.774E-06  nbox= 13
     iter. #   821  RMS(g-h-1)= 9.756E-06  nbox= 14
     iter. #   822  RMS(g-h-1)= 9.740E-06  nbox= 15
     iter. #   823  RMS(g-h-1)= 9.730E-06  nbox= 16
     iter. #   824  RMS(g-h-1)= 9.713E-06  nbox= 17
     iter. #   825  RMS(g-h-1)= 9.708E-06  nbox=  2
     iter. #   826  RMS(g-h-1)= 9.688E-06  nbox=  3
     iter. #   827  RMS(g-h-1)= 9.671E-06  nbox=  4
     iter. #   828  RMS(g-h-1)= 9.654E-06  nbox=  5
     iter. #   829  RMS(g-h-1)= 9.635E-06  nbox=  6
     iter. #   830  RMS(g-h-1)= 9.620E-06  nbox=  7
     iter. #   831  RMS(g-h-1)= 9.610E-06  nbox=  8
     iter. #   832  RMS(g-h-1)= 9.594E-06  nbox=  9
     iter. #   833  RMS(g-h-1)= 9.576E-06  nbox= 10
     iter. #   834  RMS(g-h-1)= 9.558E-06  nbox= 11
     iter. #   835  RMS(g-h-1)= 9.538E-06  nbox= 12
     iter. #   836  RMS(g-h-1)= 9.519E-06  nbox= 13
     iter. #   837  RMS(g-h-1)= 9.504E-06  nbox= 14
     iter. #   838  RMS(g-h-1)= 9.487E-06  nbox= 15
     iter. #   839  RMS(g-h-1)= 9.471E-06  nbox= 16
     iter. #   840  RMS(g-h-1)= 9.449E-06  nbox= 17
     iter. #   841  RMS(g-h-1)= 9.445E-06  nbox=  2
     iter. #   842  RMS(g-h-1)= 9.424E-06  nbox=  3
     iter. #   843  RMS(g-h-1)= 9.404E-06  nbox=  4
     iter. #   844  RMS(g-h-1)= 9.387E-06  nbox=  5
     iter. #   845  RMS(g-h-1)= 9.368E-06  nbox=  6
     iter. #   846  RMS(g-h-1)= 9.364E-06  nbox=  7
     iter. #   847  RMS(g-h-1)= 9.345E-06  nbox=  8
     iter. #   848  RMS(g-h-1)= 9.329E-06  nbox=  9
     iter. #   849  RMS(g-h-1)= 9.311E-06  nbox= 10
     iter. #   850  RMS(g-h-1)= 9.292E-06  nbox= 11
     iter. #   851  RMS(g-h-1)= 9.272E-06  nbox= 12
     iter. #   852  RMS(g-h-1)= 9.253E-06  nbox= 13
     iter. #   853  RMS(g-h-1)= 9.246E-06  nbox= 14
     iter. #   854  RMS(g-h-1)= 9.223E-06  nbox= 15
     iter. #   855  RMS(g-h-1)= 9.206E-06  nbox= 16
     iter. #   856  RMS(g-h-1)= 9.185E-06  nbox= 17
     iter. #   857  RMS(g-h-1)= 9.181E-06  nbox=  2
     iter. #   858  RMS(g-h-1)= 9.158E-06  nbox=  3
     iter. #   859  RMS(g-h-1)= 9.138E-06  nbox=  4
     iter. #   860  RMS(g-h-1)= 9.117E-06  nbox=  5
     iter. #   861  RMS(g-h-1)= 9.097E-06  nbox=  6
     iter. #   862  RMS(g-h-1)= 9.089E-06  nbox=  7
     iter. #   863  RMS(g-h-1)= 9.070E-06  nbox=  8
     iter. #   864  RMS(g-h-1)= 9.049E-06  nbox=  9
     iter. #   865  RMS(g-h-1)= 9.029E-06  nbox= 10
     iter. #   866  RMS(g-h-1)= 9.011E-06  nbox= 11
     iter. #   867  RMS(g-h-1)= 8.991E-06  nbox= 12
     iter. #   868  RMS(g-h-1)= 8.972E-06  nbox= 13
     iter. #   869  RMS(g-h-1)= 8.959E-06  nbox= 14
     iter. #   870  RMS(g-h-1)= 8.943E-06  nbox= 15
     iter. #   871  RMS(g-h-1)= 8.925E-06  nbox= 16
     iter. #   872  RMS(g-h-1)= 8.899E-06  nbox= 17
     iter. #   873  RMS(g-h-1)= 8.897E-06  nbox=  2
     iter. #   874  RMS(g-h-1)= 8.870E-06  nbox=  3
     iter. #   875  RMS(g-h-1)= 8.847E-06  nbox=  4
     iter. #   876  RMS(g-h-1)= 8.821E-06  nbox=  5
     iter. #   877  RMS(g-h-1)= 8.800E-06  nbox=  6
     iter. #   878  RMS(g-h-1)= 8.781E-06  nbox=  7
     iter. #   879  RMS(g-h-1)= 8.759E-06  nbox=  8
     iter. #   880  RMS(g-h-1)= 8.727E-06  nbox=  9
     iter. #   881  RMS(g-h-1)= 8.698E-06  nbox= 10
     iter. #   882  RMS(g-h-1)= 8.667E-06  nbox= 11
     iter. #   883  RMS(g-h-1)= 8.634E-06  nbox= 12
     iter. #   884  RMS(g-h-1)= 8.606E-06  nbox= 13
     iter. #   885  RMS(g-h-1)= 8.574E-06  nbox= 14
     iter. #   886  RMS(g-h-1)= 8.566E-06  nbox= 15
     iter. #   887  RMS(g-h-1)= 8.532E-06  nbox= 16
     iter. #   888  RMS(g-h-1)= 8.501E-06  nbox= 17
     iter. #   889  RMS(g-h-1)= 8.495E-06  nbox=  2
     iter. #   890  RMS(g-h-1)= 8.459E-06  nbox=  3
     iter. #   891  RMS(g-h-1)= 8.422E-06  nbox=  4
     iter. #   892  RMS(g-h-1)= 8.395E-06  nbox=  5
     iter. #   893  RMS(g-h-1)= 8.367E-06  nbox=  6
     iter. #   894  RMS(g-h-1)= 8.350E-06  nbox=  7
     iter. #   895  RMS(g-h-1)= 8.323E-06  nbox=  8
     iter. #   896  RMS(g-h-1)= 8.296E-06  nbox=  9
     iter. #   897  RMS(g-h-1)= 8.268E-06  nbox= 10
     iter. #   898  RMS(g-h-1)= 8.245E-06  nbox= 11
     iter. #   899  RMS(g-h-1)= 8.220E-06  nbox= 12
     iter. #   900  RMS(g-h-1)= 8.195E-06  nbox= 13
     iter. #   901  RMS(g-h-1)= 8.170E-06  nbox= 14
     iter. #   902  RMS(g-h-1)= 8.155E-06  nbox= 15
     iter. #   903  RMS(g-h-1)= 8.135E-06  nbox= 16
     iter. #   904  RMS(g-h-1)= 8.107E-06  nbox= 17
     iter. #   905  RMS(g-h-1)= 8.104E-06  nbox=  2
     iter. #   906  RMS(g-h-1)= 8.079E-06  nbox=  3
     iter. #   907  RMS(g-h-1)= 8.057E-06  nbox=  4
     iter. #   908  RMS(g-h-1)= 8.038E-06  nbox=  5
     iter. #   909  RMS(g-h-1)= 8.015E-06  nbox=  6
     iter. #   910  RMS(g-h-1)= 8.005E-06  nbox=  7
[...]
     atom   19 type  1   force =    -0.00000532   -0.04915158   61.63572601
     atom   20 type  1   force =    -0.21084609   -0.12025706   65.56288327
     atom   21 type  1   force =     0.21084524   -0.12027983   65.56285499
     atom   22 type  1   force =     0.01610043   -0.00895603   62.69880294
     atom   23 type  1   force =    -0.00001653    0.24353094   65.56614602
     atom   24 type  1   force =    -0.01608748   -0.00896453   62.69884211
     atom   25 type  1   force =     0.04350491    0.02369914   61.63602183
     atom   26 type  1   force =    -0.04352441    0.02370128   61.63608401
     atom   27 type  1   force =     0.00001644    0.01689211   62.69683488
     atom   28 type  1   force =    -0.00000240   -0.00312675  203.68840935
     atom   29 type  1   force =    -0.60186340   -0.75885252  202.92535822
     atom   30 type  1   force =     0.60186620   -0.75886285  202.92531772
     atom   31 type  1   force =    -0.95068718   -0.13522511  202.93221833
     atom   32 type  1   force =     0.00001058    0.03354670  203.56282297
     atom   33 type  1   force =     0.95069438   -0.13523485  202.93224780
     atom   34 type  1   force =    -0.34888093    0.88788007  202.93900221
     atom   35 type  1   force =     0.34886707    0.88788104  202.93905771
     atom   36 type  1   force =     0.00001785   -0.00313814  204.43256250
     atom   37 type  2   force =     0.00002397   -0.10195072   93.27925785
     atom   38 type  3   force =    -0.00003677    0.08685420  164.32228816
     The local contribution  to forces
     atom    1 type  1   force =     0.00000316    0.00000710  217.60713114
     atom    2 type  1   force =     0.02308024   -0.02517782  217.76103025
     atom    3 type  1   force =    -0.02308528   -0.02517626  217.76102602
     atom    4 type  1   force =    -0.01021167    0.03267241  217.76112338
     atom    5 type  1   force =    -0.00000121    0.00018625  217.72428587
     atom    6 type  1   force =     0.01021146    0.03267606  217.76112838
     atom    7 type  1   force =    -0.03330421   -0.00756341  217.76109238
     atom    8 type  1   force =     0.03330618   -0.00756033  217.76110331
     atom    9 type  1   force =    -0.00000422   -0.00005421  217.84869371
     atom   10 type  1   force =     0.02257410    0.01299536   77.50427493
     atom   11 type  1   force =    -0.00000735   -0.16367700   77.20061612
     atom   12 type  1   force =    -0.02256571    0.01301515   77.50428251
     atom   13 type  1   force =    -0.14169736    0.08167415   77.20026029
     atom   14 type  1   force =     0.14170981    0.08169184   77.20024971
     atom   15 type  1   force =    -0.00001253    0.09679606   77.81434651
     atom   16 type  1   force =     0.00002310   -0.02591096   77.50368943
     atom   17 type  1   force =     0.08397866   -0.04828274   77.81437671
     atom   18 type  1   force =    -0.08400057   -0.04827887   77.81438911
     atom   19 type  1   force =     0.00000532    0.04443401  -61.66038245
     atom   20 type  1   force =     0.22428610    0.12787998  -65.56571681
     atom   21 type  1   force =    -0.22428535    0.12790244  -65.56568869
     atom   22 type  1   force =    -0.02410236    0.01353517  -62.72732233
     atom   23 type  1   force =     0.00001617   -0.25899027  -65.56920370
     atom   24 type  1   force =     0.02408969    0.01354355  -62.72736175
     atom   25 type  1   force =    -0.03932092   -0.02137419  -61.66060281
     atom   26 type  1   force =     0.03934009   -0.02137612  -61.66066519
     atom   27 type  1   force =    -0.00001622   -0.02588095  -62.72540162
     atom   28 type  1   force =     0.00000175    0.00310327 -203.71944032
     atom   29 type  1   force =     0.58262906    0.72733309 -203.00685826
     atom   30 type  1   force =    -0.58263125    0.72734296 -203.00681690
     atom   31 type  1   force =     0.91473808    0.13466716 -203.01297881
     atom   32 type  1   force =    -0.00001085   -0.03177794 -203.59087090
     atom   33 type  1   force =    -0.91474518    0.13467609 -203.01300902
     atom   34 type  1   force =     0.33218513   -0.85710228 -203.01903160
     atom   35 type  1   force =    -0.33217201   -0.85710358 -203.01908857
     atom   36 type  1   force =    -0.00001707    0.00309799 -204.46458666
     atom   37 type  2   force =    -0.00002107    0.09589334  -94.15962097
     atom   38 type  3   force =     0.00002714   -0.06174668 -161.56925845
     The core correction contribution to forces
     atom    1 type  1   force =     0.00000000   -0.00000392    0.01936617
     atom    2 type  1   force =    -0.00023013    0.00004029    0.01940311
     atom    3 type  1   force =     0.00023012    0.00004029    0.01940310
     atom    4 type  1   force =    -0.00007731   -0.00021007    0.01940687
     atom    5 type  1   force =    -0.00000001    0.00001087    0.01895037
     atom    6 type  1   force =     0.00007731   -0.00021007    0.01940689
     atom    7 type  1   force =     0.00015369    0.00016879    0.01940716
     atom    8 type  1   force =    -0.00015369    0.00016880    0.01940717
     atom    9 type  1   force =     0.00000000   -0.00000971    0.01978431
     atom   10 type  1   force =     0.00024381    0.00013991    0.00009711
     atom   11 type  1   force =    -0.00000001   -0.00064148   -0.00036187
     atom   12 type  1   force =    -0.00024381    0.00013994    0.00009710
     atom   13 type  1   force =    -0.00054705    0.00032469   -0.00036833
     atom   14 type  1   force =     0.00054707    0.00032471   -0.00036831
     atom   15 type  1   force =    -0.00000001    0.00028244    0.00066279
     atom   16 type  1   force =     0.00000005   -0.00028932    0.00010993
     atom   17 type  1   force =     0.00024403   -0.00014117    0.00066640
     atom   18 type  1   force =    -0.00024406   -0.00014117    0.00066641
     atom   19 type  1   force =     0.00000003   -0.00034601   -0.00017939
     atom   20 type  1   force =     0.00157180    0.00090147    0.00095307
     atom   21 type  1   force =    -0.00157179    0.00090152    0.00095311
     atom   22 type  1   force =     0.00007824   -0.00005241    0.00047627
     atom   23 type  1   force =     0.00000003   -0.00183445    0.00099976
     atom   24 type  1   force =    -0.00007825   -0.00005240    0.00047629
     atom   25 type  1   force =     0.00029756    0.00018461   -0.00017883
     atom   26 type  1   force =    -0.00029753    0.00018463   -0.00017883
     atom   27 type  1   force =    -0.00000002    0.00010693    0.00048554
     atom   28 type  1   force =    -0.00000001    0.00000299   -0.01963591
     atom   29 type  1   force =    -0.00088950   -0.00170862   -0.02008790
     atom   30 type  1   force =     0.00088950   -0.00170857   -0.02008789
     atom   31 type  1   force =    -0.00191219    0.00009311   -0.02007673
     atom   32 type  1   force =    -0.00000010   -0.00031791    0.02503734
     atom   33 type  1   force =     0.00191215    0.00009311   -0.02007672
     atom   34 type  1   force =    -0.00101362    0.00159555   -0.02007466
     atom   35 type  1   force =     0.00101363    0.00159552   -0.02007467
     atom   36 type  1   force =    -0.00000004    0.00000572   -0.02027469
     atom   37 type  2   force =     0.00000009   -0.00011982   -0.01714797
     atom   38 type  3   force =    -0.00000007    0.00021307    0.02244681
     The Hubbard contrib.    to forces
     atom    1 type  1   force =     0.00000000    0.00000000    0.00000000
     atom    2 type  1   force =     0.00000000    0.00000000    0.00000000
     atom    3 type  1   force =     0.00000000    0.00000000    0.00000000
     atom    4 type  1   force =     0.00000000    0.00000000    0.00000000
     atom    5 type  1   force =     0.00000000    0.00000000    0.00000000
     atom    6 type  1   force =     0.00000000    0.00000000    0.00000000
     atom    7 type  1   force =     0.00000000    0.00000000    0.00000000
     atom    8 type  1   force =     0.00000000    0.00000000    0.00000000
     atom    9 type  1   force =     0.00000000    0.00000000    0.00000000
     atom   10 type  1   force =     0.00000000    0.00000000    0.00000000
     atom   11 type  1   force =     0.00000000    0.00000000    0.00000000
     atom   12 type  1   force =     0.00000000    0.00000000    0.00000000
     atom   13 type  1   force =     0.00000000    0.00000000    0.00000000
     atom   14 type  1   force =     0.00000000    0.00000000    0.00000000
     atom   15 type  1   force =     0.00000000    0.00000000    0.00000000
     atom   16 type  1   force =     0.00000000    0.00000000    0.00000000
     atom   17 type  1   force =     0.00000000    0.00000000    0.00000000
     atom   18 type  1   force =     0.00000000    0.00000000    0.00000000
     atom   19 type  1   force =     0.00000000    0.00000000    0.00000000
     atom   20 type  1   force =     0.00000000    0.00000000    0.00000000
     atom   21 type  1   force =     0.00000000    0.00000000    0.00000000
     atom   22 type  1   force =     0.00000000    0.00000000    0.00000000
     atom   23 type  1   force =     0.00000000    0.00000000    0.00000000
     atom   24 type  1   force =     0.00000000    0.00000000    0.00000000
     atom   25 type  1   force =     0.00000000    0.00000000    0.00000000
     atom   26 type  1   force =     0.00000000    0.00000000    0.00000000
     atom   27 type  1   force =     0.00000000    0.00000000    0.00000000
     atom   28 type  1   force =     0.00000000    0.00000000    0.00000000
     atom   29 type  1   force =     0.00000000    0.00000000    0.00000000
     atom   30 type  1   force =     0.00000000    0.00000000    0.00000000
     atom   31 type  1   force =     0.00000000    0.00000000    0.00000000
     atom   32 type  1   force =     0.00000000    0.00000000    0.00000000
     atom   33 type  1   force =     0.00000000    0.00000000    0.00000000
     atom   34 type  1   force =     0.00000000    0.00000000    0.00000000
     atom   35 type  1   force =     0.00000000    0.00000000    0.00000000
     atom   36 type  1   force =     0.00000000    0.00000000    0.00000000
     atom   37 type  2   force =     0.00000000    0.00000000    0.00000000
     atom   38 type  3   force =     0.00000000    0.00000000    0.00000000
     The SCF correction term to forces
     atom    1 type  1   force =     0.00000000    0.00000000    0.00000000
     atom    2 type  1   force =     0.00000000    0.00000000    0.00000000
     atom    3 type  1   force =     0.00000000    0.00000000    0.00000000
     atom    4 type  1   force =     0.00000000    0.00000000    0.00000000
     atom    5 type  1   force =     0.00000000    0.00000000    0.00000000
     atom    6 type  1   force =     0.00000000    0.00000000    0.00000000
     atom    7 type  1   force =     0.00000000    0.00000000    0.00000000
     atom    8 type  1   force =     0.00000000    0.00000000    0.00000000
     atom    9 type  1   force =     0.00000000    0.00000000    0.00000000
     atom   10 type  1   force =     0.00000005   -0.00000013   -0.00000084
     atom   11 type  1   force =    -0.00000010   -0.00000008   -0.00000095
     atom   12 type  1   force =     0.00000005   -0.00000005   -0.00000090
     atom   13 type  1   force =     0.00000001   -0.00000004   -0.00000095
     atom   14 type  1   force =     0.00000002    0.00000008   -0.00000093
     atom   15 type  1   force =    -0.00000002    0.00000016   -0.00000088
     atom   16 type  1   force =     0.00000012    0.00000010   -0.00000086
     atom   17 type  1   force =     0.00000008    0.00000004   -0.00000085
     atom   18 type  1   force =    -0.00000020   -0.00000001   -0.00000093
     atom   19 type  1   force =     0.00000009   -0.00000008   -0.00000160
     atom   20 type  1   force =    -0.00000020   -0.00000026   -0.00000194
     atom   21 type  1   force =     0.00000011   -0.00000004   -0.00000195
     atom   22 type  1   force =    -0.00000012   -0.00000001   -0.00000174
     atom   23 type  1   force =     0.00000015    0.00000021   -0.00000192
     atom   24 type  1   force =    -0.00000002    0.00000015   -0.00000169
     atom   25 type  1   force =     0.00000014    0.00000004   -0.00000167
     atom   26 type  1   force =     0.00000008    0.00000003   -0.00000159
     atom   27 type  1   force =    -0.00000022   -0.00000003   -0.00000176
     atom   28 type  1   force =     0.00000023    0.00000004   -0.00000165
     atom   29 type  1   force =    -0.00000029   -0.00000022   -0.00000141
     atom   30 type  1   force =     0.00000005   -0.00000010   -0.00000138
     atom   31 type  1   force =    -0.00000022   -0.00000023   -0.00000138
     atom   32 type  1   force =    -0.00000001   -0.00000004   -0.00000106
     atom   33 type  1   force =     0.00000025    0.00000003   -0.00000137
     atom   34 type  1   force =     0.00000006    0.00000014   -0.00000137
     atom   35 type  1   force =     0.00000016    0.00000029   -0.00000140
     atom   36 type  1   force =    -0.00000023    0.00000001   -0.00000148
     atom   37 type  2   force =     0.00000000    0.00000000    0.00000037
     atom   38 type  3   force =     0.00000001   -0.00000002   -0.00000042

     3D-RISM Solvation contribution to forces:
     atom    1 type  1   force =     0.00000001    0.00000033    0.00000692
     atom    2 type  1   force =     0.00001213    0.00002375    0.00003167
     atom    3 type  1   force =    -0.00001213    0.00002378    0.00003167
     atom    4 type  1   force =     0.00002636   -0.00000178    0.00003124
     atom    5 type  1   force =     0.00000004   -0.00000055    0.00008331
     atom    6 type  1   force =    -0.00002637   -0.00000176    0.00003133
     atom    7 type  1   force =     0.00001425   -0.00002198    0.00003068
     atom    8 type  1   force =    -0.00001422   -0.00002200    0.00003077
     atom    9 type  1   force =    -0.00000003    0.00000023    0.00000180
     atom   10 type  1   force =     0.00014247    0.00008184    0.00004078
     atom   11 type  1   force =     0.00000003    0.00019863    0.00031131
     atom   12 type  1   force =    -0.00014241    0.00008193    0.00004080
     atom   13 type  1   force =     0.00017241   -0.00010280    0.00030498
     atom   14 type  1   force =    -0.00017228   -0.00010275    0.00030503
     atom   15 type  1   force =    -0.00000007   -0.00005469   -0.00005065
     atom   16 type  1   force =     0.00000010   -0.00016086    0.00003500
     atom   17 type  1   force =    -0.00004453    0.00002933   -0.00004992
     atom   18 type  1   force =     0.00004446    0.00002937   -0.00004996
     atom   19 type  1   force =     0.00000005    0.00026754   -0.00045687
     atom   20 type  1   force =     0.00102808    0.00057295    0.00203663
     atom   21 type  1   force =    -0.00102795    0.00057310    0.00203674
     atom   22 type  1   force =     0.00116450   -0.00067926   -0.00009527
     atom   23 type  1   force =     0.00000020   -0.00119644    0.00199053
     atom   24 type  1   force =    -0.00116455   -0.00067921   -0.00009495
     atom   25 type  1   force =    -0.00024944   -0.00011649   -0.00046996
     atom   26 type  1   force =     0.00024968   -0.00011657   -0.00046972
     atom   27 type  1   force =    -0.00000007    0.00137100   -0.00005881
     atom   28 type  1   force =     0.00000038    0.00013239   -0.01748048
     atom   29 type  1   force =     0.00537020    0.01032033    0.00357674
     atom   30 type  1   force =    -0.00537055    0.01032114    0.00357628
     atom   31 type  1   force =     0.01154758   -0.00065745    0.00339616
     atom   32 type  1   force =     0.00000071   -0.00017536    0.00843013
     atom   33 type  1   force =    -0.01154828   -0.00065690    0.00339711
     atom   34 type  1   force =     0.00617727   -0.00970882    0.00317464
     atom   35 type  1   force =    -0.00617661   -0.00970899    0.00317605
     atom   36 type  1   force =    -0.00000067    0.00010566   -0.01941312
     atom   37 type  2   force =     0.00000014   -0.00030552   -0.02148200
     atom   38 type  3   force =     0.00000005   -0.00083009   -0.08223279

     Total force =     0.001521     Total SCF correction =     0.000007

     Total 3D-RISM Solvation Force =     0.094199

     Writing output data file Cu-vib.save
 
     init_run     :    419.31s CPU    213.17s WALL (       1 calls)
     electrons    :   6737.15s CPU   3428.80s WALL (       1 calls)
     forces       :     25.76s CPU     13.30s WALL (       1 calls)

     Called by init_run:
     wfcinit      :     59.93s CPU     30.36s WALL (       1 calls)
     wfcinit:atom :      0.02s CPU      0.02s WALL (      34 calls)
     wfcinit:wfcr :     58.67s CPU     30.03s WALL (      34 calls)
     potinit      :    350.77s CPU    178.14s WALL (       1 calls)

     Called by electrons:
     c_bands      :   3836.13s CPU   1964.21s WALL (      32 calls)
     sum_band     :    513.47s CPU    265.88s WALL (      32 calls)
     v_of_rho     :     45.14s CPU     20.85s WALL (      32 calls)
     v_h          :      0.50s CPU      0.51s WALL (      64 calls)
     v_xc         :     46.54s CPU     21.21s WALL (      33 calls)
     newd         :      2.20s CPU      1.16s WALL (      32 calls)
     PAW_pot      :      7.56s CPU      2.65s WALL (      32 calls)
     mix_rho      :      0.53s CPU      0.53s WALL (      32 calls)

     Called by c_bands:
     init_us_2    :      3.37s CPU      1.43s WALL (    2244 calls)
     crmmdiagg    :   2511.01s CPU   1273.56s WALL (    1088 calls)
     wfcrot       :   1319.09s CPU    680.04s WALL (    1054 calls)
     gsorth       :     61.74s CPU     38.24s WALL (    1088 calls)

     Called by sum_band:
     sum_band:bec :      2.20s CPU      1.18s WALL (    1088 calls)
     addusdens    :      1.15s CPU      1.15s WALL (      32 calls)

     Called by *rmmdiagg:
     h_psi        :   3469.17s CPU   1749.67s WALL (    9339 calls)
     s_psi        :     44.57s CPU     26.14s WALL (    9339 calls)
     cdiaghg      :    123.76s CPU     76.47s WALL (    1054 calls)
     cdiaghg:chol :      4.73s CPU      2.68s WALL (    1054 calls)
     cdiaghg:inve :      2.76s CPU      1.74s WALL (    1054 calls)
     cdiaghg:para :      3.64s CPU      1.59s WALL (    2108 calls)

     Called by h_psi:
     h_psi:pot    :   3464.83s CPU   1748.32s WALL (    9339 calls)
     h_psi:calbec :    120.31s CPU     65.32s WALL (    9339 calls)
     vloc_psi     :   3293.18s CPU   1656.00s WALL (    9339 calls)
     add_vuspsi   :     51.14s CPU     26.85s WALL (    9339 calls)

     General routines
     calbec       :    150.32s CPU     83.68s WALL (   10563 calls)
     fft          :     30.08s CPU     15.04s WALL (    2270 calls)
     ffts         :      0.15s CPU      0.15s WALL (      64 calls)
     fftw         :   3701.49s CPU   1859.78s WALL ( 1910074 calls)
     fftc         :      0.93s CPU      0.14s WALL (      64 calls)
     interpolate  :      0.57s CPU      0.57s WALL (      64 calls)
 
     Parallel routines
     fft_scatter  :   2596.27s CPU   1410.48s WALL ( 2004322 calls)

     PAW routines
     PAW_pot      :      7.56s CPU      2.65s WALL (      32 calls)

     RISM routines
     1DRISM_pre   :     27.75s CPU     14.32s WALL (       1 calls)
     1DRISM_run   :      0.90s CPU      1.18s WALL (       1 calls)
     3DRISM_pre   :     11.68s CPU      6.37s WALL (       1 calls)
     3DRISM_run   :   2666.81s CPU   1342.65s WALL (      32 calls)
     3DRISM_for   :      4.97s CPU      2.89s WALL (       1 calls)
     3DRISM_vsol  :      0.20s CPU      0.20s WALL (      32 calls)
 
     PWSCF        :     2h 2m CPU        1h 2m WALL

 
   This run was terminated on:   1:34: 1  11Feb2026            

=------------------------------------------------------------------------------=
   JOB DONE.
=------------------------------------------------------------------------------=
