
     Program PWSCF v.7.3.1 starts on 16Oct2025 at 13: 5:45 

     This program is part of the open-source Quantum ESPRESSO suite
     for quantum simulation of materials; please cite
         "P. Giannozzi et al., J. Phys.:Condens. Matter 21 395502 (2009);
         "P. Giannozzi et al., J. Phys.:Condens. Matter 29 465901 (2017);
         "P. Giannozzi et al., J. Chem. Phys. 152 154105 (2020);
          URL http://www.quantum-espresso.org", 
     in publications or presentations arising from this work. More details at
     http://www.quantum-espresso.org/quote

     Parallel version (MPI & OpenMP), running on     192 processor cores
     Number of MPI processes:               192
     Threads/MPI process:                     1

     MPI processes distributed on     4 nodes
     26116 MiB available memory on the printing compute node when the environment starts
 
     Reading input from espresso.pwi
Warning: card &CELL ignored
Warning: card / ignored
Warning: card &FCP ignored
Warning: card / ignored
Warning: card &RISM ignored
Warning: card / ignored

     Current dimensions of program PWSCF are:
     Max number of different atomic species (ntypx) = 10
     Max number of k-points (npk) =  40000
     Max angular momentum in pseudopotentials (lmaxx) =  4
     file O.pbe-n-kjpaw_psl.1.0.0.UPF: wavefunction(s)  2S 2P renormalized
     file H.pbe-kjpaw_psl.1.0.0.UPF: wavefunction(s)  1S renormalized

     IMPORTANT: XC functional enforced from input :
     Exchange-correlation= VDW-DF2
                           (   1   4  13   0   2   0   0)
     Any further DFT definition will be discarded
     Please, verify this is what you really want

     Message from routine setup:
     using ibrav=0 with symmetry is DISCOURAGED, use correct ibrav instead
 
     R & G space division:  proc/nbgrp/npool/nimage =     192
     Subspace diagonalization in iterative solution of the eigenvalue problem:
     a serial algorithm will be used

 
     Parallelization info
     --------------------
     sticks:   dense  smooth     PW     G-vecs:    dense   smooth      PW
     Min         370     148     37                74144    18750    2341
     Max         371     149     39                74152    18760    2347
     Sum       71041   28417   7129             14236565  3601159  450127
 
     Using Slab Decomposition
 

     Title: 
     H2O_IR                                                                     


     bravais-lattice index     =            0
     lattice parameter (alat)  =      37.7945  a.u.
     unit-cell volume          =   53986.6760 (a.u.)^3
     number of atoms/cell      =            3
     number of atomic types    =            2
     number of electrons       =         8.00
     number of Kohn-Sham states=            4
     kinetic-energy cutoff     =      62.4738  Ry
     charge density cutoff     =     624.7385  Ry
     scf convergence threshold =      7.3E-12
     mixing beta               =       0.3333
     number of iterations used =           12  plain     mixing
     energy convergence thresh.=      7.3E-07
     force convergence thresh. =      3.9E-04
     Exchange-correlation= VDW-DF2
                           (   1   4  13   0   2   0   0)
     nstep                     =          100


     Effective Screening Medium Method
     =================================
     Boundary Conditions: Vacuum-Slab-Vacuum
     total charge in unit cell        =   0.0000
     grid points for fit at edges     =        4 
 

     celldm(1)=  37.794522  celldm(2)=   0.000000  celldm(3)=   0.000000
     celldm(4)=   0.000000  celldm(5)=   0.000000  celldm(6)=   0.000000

     crystal axes: (cart. coord. in units of alat)
               a(1) = (   1.000000   0.000000   0.000000 )  
               a(2) = (   0.000000   1.000000   0.000000 )  
               a(3) = (   0.000000   0.000000   1.000000 )  

     reciprocal axes: (cart. coord. in units 2 pi/alat)
               b(1) = (  1.000000  0.000000  0.000000 )  
               b(2) = (  0.000000  1.000000  0.000000 )  
               b(3) = (  0.000000  0.000000  1.000000 )  


     PseudoPot. # 1 for O  read from file:
     /work/gf93/f93007/QE/pseudo/O.pbe-n-kjpaw_psl.1.0.0.UPF
     MD5 check sum: c61d840054b6bba219e553541e327118
     Pseudo is Projector augmented-wave + core cor, Zval =  6.0
     Generated using "atomic" code by A. Dal Corso  v.6.1 svn rev. 13369
     Shape of augmentation charge: PSQ
     Using radial grid of 1095 points,  4 beta functions with: 
                l(1) =   0
                l(2) =   0
                l(3) =   1
                l(4) =   1
     Q(r) pseudized with 0 coefficients 


     PseudoPot. # 2 for H  read from file:
     /work/gf93/f93007/QE/pseudo/H.pbe-kjpaw_psl.1.0.0.UPF
     MD5 check sum: 29603ce6b94be0cf73e39cbb1f958d8e
     Pseudo is Projector augmented-wave, Zval =  1.0
     Generated using "atomic" code by A. Dal Corso  v.6.1 svn rev. 13369
     Shape of augmentation charge: PSQ
     Using radial grid of  929 points,  2 beta functions with: 
                l(1) =   0
                l(2) =   0
     Q(r) pseudized with 0 coefficients 


     atomic species   valence    mass     pseudopotential
     O                 6.00    15.99900     O ( 1.00)
     H                 1.00     1.00800     H ( 1.00)

      4 Sym. Ops. (no inversion) found


                                    s                        frac. trans.

      isym =  1     identity                                     

 cryst.   s( 1) = (     1          0          0      )
                  (     0          1          0      )
                  (     0          0          1      )

 cart.    s( 1) = (  1.0000000  0.0000000  0.0000000 )
                  (  0.0000000  1.0000000  0.0000000 )
                  (  0.0000000  0.0000000  1.0000000 )


      isym =  2     180 deg rotation - cart. axis [0,0,1]        

 cryst.   s( 2) = (    -1          0          0      )
                  (     0         -1          0      )
                  (     0          0          1      )

 cart.    s( 2) = ( -1.0000000  0.0000000  0.0000000 )
                  (  0.0000000 -1.0000000  0.0000000 )
                  (  0.0000000  0.0000000  1.0000000 )


      isym =  3     inv. 180 deg rotation - cart. axis [0,1,0]   

 cryst.   s( 3) = (     1          0          0      )
                  (     0         -1          0      )
                  (     0          0          1      )

 cart.    s( 3) = (  1.0000000  0.0000000  0.0000000 )
                  (  0.0000000 -1.0000000  0.0000000 )
                  (  0.0000000  0.0000000  1.0000000 )


      isym =  4     inv. 180 deg rotation - cart. axis [1,0,0]   

 cryst.   s( 4) = (    -1          0          0      )
                  (     0          1          0      )
                  (     0          0          1      )

 cart.    s( 4) = ( -1.0000000  0.0000000  0.0000000 )
                  (  0.0000000  1.0000000  0.0000000 )
                  (  0.0000000  0.0000000  1.0000000 )


   Cartesian axes

     site n.     atom                  positions (alat units)
         1        O      tau(   1) = (   0.5000000   0.5000000   0.0000000  )
         2        H      tau(   2) = (   0.5000000   0.5381620   0.0298155  )
         3        H      tau(   3) = (   0.5000000   0.4618380   0.0298155  )

   Crystallographic axes

     site n.     atom                  positions (cryst. coord.)
         1        O      tau(   1) = (  0.5000000  0.5000000  0.0000000  )
         2        H      tau(   2) = (  0.5000000  0.5381620  0.0298155  )
         3        H      tau(   3) = (  0.5000000  0.4618380  0.0298155  )

     number of k points=     1
                       cart. coord. in units 2pi/alat
        k(    1) = (   0.0000000   0.0000000   0.0000000), wk =   2.0000000

                       cryst. coord.
        k(    1) = (   0.0000000   0.0000000   0.0000000), wk =   2.0000000

     Dense  grid: 14236565 G-vectors     FFT dimensions: ( 320, 320, 320)

     Smooth grid:  3601159 G-vectors     FFT dimensions: ( 192, 192, 192)

     Dynamical RAM for                 wfc:       0.14 MB

     Dynamical RAM for     wfc (w. buffer):       0.14 MB

     Dynamical RAM for           str. fact:       2.26 MB

     Dynamical RAM for           local pot:       0.00 MB

     Dynamical RAM for          nlocal pot:       0.43 MB

     Dynamical RAM for                qrad:       1.15 MB

     Dynamical RAM for          rho,v,vnew:       8.08 MB

     Dynamical RAM for               rhoin:       2.69 MB

     Dynamical RAM for            rho*nmix:      27.15 MB

     Dynamical RAM for           G-vectors:       4.39 MB

     Dynamical RAM for          h,s,v(r/c):       0.00 MB

     Dynamical RAM for          <psi|beta>:       0.00 MB

     Dynamical RAM for                 psi:       0.29 MB

     Dynamical RAM for                hpsi:       0.29 MB

     Dynamical RAM for                spsi:       0.29 MB

     Dynamical RAM for      wfcinit/wfcrot:       0.43 MB

     Dynamical RAM for           addusdens:      50.91 MB

     Dynamical RAM for          addusforce:      53.75 MB

     Estimated static dynamical RAM per process >      30.35 MB

     Estimated max dynamical RAM per process >     217.23 MB

     Estimated total dynamical RAM >      20.86 GB

     Initial potential from superposition of free atoms

     starting charge       8.0000, renormalised to       8.0000

     negative rho (up, down):  1.153E-03 0.000E+00


     %%%%%%%%%%%%%%%%%%%%%%%%%%%%%%%%%%%%%%%%%%%%%%%%%%%%%%%%%%%%%%%%%%%%%%%%
     %                                                                      %
     % You are using vdW-DF, which was implemented by the Thonhauser group. %
     % Please cite the following two papers that made this development      %
     % possible and the two reviews that describe the various versions:     %
     %                                                                      %
     %   T. Thonhauser et al., PRL 115, 136402 (2015).                      %
     %   T. Thonhauser et al., PRB 76, 125112 (2007).                       %
     %   K. Berland et al., Rep. Prog. Phys. 78, 066501 (2015).             %
     %   D.C. Langreth et al., J. Phys.: Condens. Matter 21, 084203 (2009). %
     %                                                                      %
     % If you are calculating stress with vdW-DF, please also cite:         %
     %                                                                      %
     %   R. Sabatini et al., J. Phys.: Condens. Matter 24, 424209 (2012).   %
     %                                                                      %
     %%%%%%%%%%%%%%%%%%%%%%%%%%%%%%%%%%%%%%%%%%%%%%%%%%%%%%%%%%%%%%%%%%%%%%%%

     %%%%%%%%%%%%%%%%%%%%%%%%%%%%%%%%%%%%%%%%%%%%%%%%%%%%%%%%%%%%%%%%%%%%%%%%
     %                                                                      %
     %  vdW-DF NEWS:                                                        %
     %                                                                      %
     %  * vdW-DF3 is now available. DOI: 10.1021/acs.jctc.0c00471           %
     %    use with input_dft = 'vdW-DF3-opt1' or 'vdW-DF3-opt2'             %
     %                                                                      %
     %  * Unscreened and range-separated hybrid vdW-DF-cx functionals       %
     %    DOI: 10.1063/1.4986522 and 10.1088/1361-648X/ac2ad2               %
     %    use with input_dft = 'vdW-DF-cx0'    and 'vdW-DF-ahcx'            %
     %  * Unscreened and range-separated hybrid vdW-DF2-b86r functionals    %
     %    DOI: 10.1063/1.4986522 and DOI: 10.1103/PhysRevX.12.041003        %
     %    use with input_dft = 'vdW-DF2-br0' and 'vdW-DF2-ahbr'             %
     %                                                                      %
     %%%%%%%%%%%%%%%%%%%%%%%%%%%%%%%%%%%%%%%%%%%%%%%%%%%%%%%%%%%%%%%%%%%%%%%%


     Carrying out vdW-DF run using the following parameters:
     Nqs    =  20  Npoints =  1024  r_max =  100.000
     q_mesh =  0.00001000  0.04494208  0.09755937  0.15916263
               0.23128650  0.31572767  0.41458969  0.53033537
               0.66584808  0.82450364  1.01025438  1.22772762
               1.48234092  1.78043706  2.12944203  2.53805004
               3.01644009  3.57652955  4.23227104  5.00000000


     -----------------------------------------------
     Non-local corr. energy    =       0.13359219 Ry
     -----------------------------------------------

     Starting wfcs are    6 randomized atomic wfcs
     Checking if some PAW data can be deallocated... 
       PAW data deallocated on  128 nodes for type:  1
       PAW data deallocated on   64 nodes for type:  2

     total cpu time spent up to now is       22.6 secs

     per-process dynamical memory:   131.1 Mb

     Self-consistent Calculation

     iteration #  1     ecut=    62.47 Ry     beta= 0.33
     Davidson diagonalization with overlap

---- Real-time Memory Report at c_bands before calling an iterative solver
            42 MiB given to the printing process from OS
           128 MiB allocation reported by mallinfo(arena+hblkhd)
         21521 MiB available memory on the node where the printing process lives
------------------
     ethr =  1.00E-02,  avg # of iterations =  4.0

     negative rho (up, down):  1.233E-03 0.000E+00


     -----------------------------------------------
     Non-local corr. energy    =       0.13501444 Ry
     -----------------------------------------------


     total cpu time spent up to now is       27.1 secs

     total energy              =     -44.91802252 Ry
     estimated scf accuracy    <       0.54621565 Ry

     iteration #  2     ecut=    62.47 Ry     beta= 0.33
     Davidson diagonalization with overlap

---- Real-time Memory Report at c_bands before calling an iterative solver
            43 MiB given to the printing process from OS
           132 MiB allocation reported by mallinfo(arena+hblkhd)
         21318 MiB available memory on the node where the printing process lives
------------------
     ethr =  6.83E-03,  avg # of iterations =  2.0

     negative rho (up, down):  1.614E-03 0.000E+00


     -----------------------------------------------
     Non-local corr. energy    =       0.13751391 Ry
     -----------------------------------------------


     total cpu time spent up to now is       31.6 secs

     total energy              =     -44.82898740 Ry
     estimated scf accuracy    <       0.16743199 Ry

     iteration #  3     ecut=    62.47 Ry     beta= 0.33
     Davidson diagonalization with overlap

---- Real-time Memory Report at c_bands before calling an iterative solver
            44 MiB given to the printing process from OS
           132 MiB allocation reported by mallinfo(arena+hblkhd)
         21348 MiB available memory on the node where the printing process lives
------------------
     ethr =  2.09E-03,  avg # of iterations =  9.0

     negative rho (up, down):  1.602E-03 0.000E+00


     -----------------------------------------------
     Non-local corr. energy    =       0.13595638 Ry
     -----------------------------------------------


     total cpu time spent up to now is       36.2 secs

     total energy              =     -45.00739550 Ry
     estimated scf accuracy    <       0.73874831 Ry

     iteration #  4     ecut=    62.47 Ry     beta= 0.33
     Davidson diagonalization with overlap

---- Real-time Memory Report at c_bands before calling an iterative solver
            44 MiB given to the printing process from OS
           134 MiB allocation reported by mallinfo(arena+hblkhd)
         21304 MiB available memory on the node where the printing process lives
------------------
     ethr =  2.09E-03,  avg # of iterations =  2.0

     negative rho (up, down):  2.101E-03 0.000E+00


     -----------------------------------------------
     Non-local corr. energy    =       0.13592159 Ry
     -----------------------------------------------


     total cpu time spent up to now is       40.6 secs

     total energy              =     -45.05297944 Ry
     estimated scf accuracy    <       0.35890401 Ry

     iteration #  5     ecut=    62.47 Ry     beta= 0.33
     Davidson diagonalization with overlap

---- Real-time Memory Report at c_bands before calling an iterative solver
            44 MiB given to the printing process from OS
           134 MiB allocation reported by mallinfo(arena+hblkhd)
         21248 MiB available memory on the node where the printing process lives
------------------
     ethr =  2.09E-03,  avg # of iterations =  2.0

     negative rho (up, down):  1.990E-03 0.000E+00


     -----------------------------------------------
     Non-local corr. energy    =       0.13542679 Ry
     -----------------------------------------------


     total cpu time spent up to now is       45.0 secs

     total energy              =     -44.98096716 Ry
     estimated scf accuracy    <       0.32817842 Ry

     iteration #  6     ecut=    62.47 Ry     beta= 0.33
     Davidson diagonalization with overlap

---- Real-time Memory Report at c_bands before calling an iterative solver
            44 MiB given to the printing process from OS
           134 MiB allocation reported by mallinfo(arena+hblkhd)
         21289 MiB available memory on the node where the printing process lives
------------------
     ethr =  2.09E-03,  avg # of iterations =  2.0

     negative rho (up, down):  9.869E-03 0.000E+00


     -----------------------------------------------
     Non-local corr. energy    =       0.13510445 Ry
     -----------------------------------------------


     total cpu time spent up to now is       49.4 secs

     total energy              =     -44.89096108 Ry
     estimated scf accuracy    <       0.14252365 Ry

     iteration #  7     ecut=    62.47 Ry     beta= 0.33
     Davidson diagonalization with overlap

---- Real-time Memory Report at c_bands before calling an iterative solver
            44 MiB given to the printing process from OS
           134 MiB allocation reported by mallinfo(arena+hblkhd)
         21188 MiB available memory on the node where the printing process lives
------------------
     ethr =  1.78E-03,  avg # of iterations = 10.0

     negative rho (up, down):  9.320E-03 0.000E+00


     -----------------------------------------------
     Non-local corr. energy    =       0.13500174 Ry
     -----------------------------------------------


     total cpu time spent up to now is       54.0 secs

     total energy              =     -45.15932654 Ry
     estimated scf accuracy    <       0.31275209 Ry

     iteration #  8     ecut=    62.47 Ry     beta= 0.33
     Davidson diagonalization with overlap

---- Real-time Memory Report at c_bands before calling an iterative solver
            44 MiB given to the printing process from OS
           136 MiB allocation reported by mallinfo(arena+hblkhd)
         21232 MiB available memory on the node where the printing process lives
------------------
     ethr =  1.78E-03,  avg # of iterations =  4.0

     negative rho (up, down):  7.239E-03 0.000E+00


     -----------------------------------------------
     Non-local corr. energy    =       0.13525082 Ry
     -----------------------------------------------


     total cpu time spent up to now is       58.4 secs

     total energy              =     -45.11167848 Ry
     estimated scf accuracy    <       0.50024829 Ry

     iteration #  9     ecut=    62.47 Ry     beta= 0.33
     Davidson diagonalization with overlap

---- Real-time Memory Report at c_bands before calling an iterative solver
            44 MiB given to the printing process from OS
           136 MiB allocation reported by mallinfo(arena+hblkhd)
         21143 MiB available memory on the node where the printing process lives
------------------
     ethr =  1.78E-03,  avg # of iterations =  1.0

     negative rho (up, down):  3.829E-03 0.000E+00


     -----------------------------------------------
     Non-local corr. energy    =       0.13577473 Ry
     -----------------------------------------------


     total cpu time spent up to now is       62.8 secs

     total energy              =     -44.98999128 Ry
     estimated scf accuracy    <       0.38667290 Ry

     iteration # 10     ecut=    62.47 Ry     beta= 0.33
     Davidson diagonalization with overlap

---- Real-time Memory Report at c_bands before calling an iterative solver
            44 MiB given to the printing process from OS
           136 MiB allocation reported by mallinfo(arena+hblkhd)
         21161 MiB available memory on the node where the printing process lives
------------------
     ethr =  1.78E-03,  avg # of iterations =  2.0

     negative rho (up, down):  2.313E-03 0.000E+00


     -----------------------------------------------
     Non-local corr. energy    =       0.13609134 Ry
     -----------------------------------------------


     total cpu time spent up to now is       67.2 secs

     total energy              =     -44.95083168 Ry
     estimated scf accuracy    <       0.17764577 Ry

     iteration # 11     ecut=    62.47 Ry     beta= 0.33
     Davidson diagonalization with overlap

---- Real-time Memory Report at c_bands before calling an iterative solver
            44 MiB given to the printing process from OS
           138 MiB allocation reported by mallinfo(arena+hblkhd)
         21113 MiB available memory on the node where the printing process lives
------------------
     ethr =  1.78E-03,  avg # of iterations =  4.0

     negative rho (up, down):  2.029E-03 0.000E+00


     -----------------------------------------------
     Non-local corr. energy    =       0.13608109 Ry
     -----------------------------------------------


     total cpu time spent up to now is       71.7 secs

     total energy              =     -44.99948881 Ry
     estimated scf accuracy    <       0.01585608 Ry

     iteration # 12     ecut=    62.47 Ry     beta= 0.33
     Davidson diagonalization with overlap

---- Real-time Memory Report at c_bands before calling an iterative solver
            44 MiB given to the printing process from OS
           138 MiB allocation reported by mallinfo(arena+hblkhd)
         21063 MiB available memory on the node where the printing process lives
------------------
     ethr =  1.98E-04,  avg # of iterations =  5.0

     negative rho (up, down):  1.878E-03 0.000E+00


     -----------------------------------------------
     Non-local corr. energy    =       0.13600220 Ry
     -----------------------------------------------


     total cpu time spent up to now is       76.1 secs

     total energy              =     -45.02316425 Ry
     estimated scf accuracy    <       0.00222856 Ry

     iteration # 13     ecut=    62.47 Ry     beta= 0.33
     Davidson diagonalization with overlap

---- Real-time Memory Report at c_bands before calling an iterative solver
            44 MiB given to the printing process from OS
           138 MiB allocation reported by mallinfo(arena+hblkhd)
         21093 MiB available memory on the node where the printing process lives
------------------
     ethr =  2.79E-05,  avg # of iterations =  4.0

     negative rho (up, down):  1.695E-03 0.000E+00


     -----------------------------------------------
     Non-local corr. energy    =       0.13600981 Ry
     -----------------------------------------------


     total cpu time spent up to now is       80.6 secs

     total energy              =     -45.02477435 Ry
     estimated scf accuracy    <       0.00213902 Ry

     iteration # 14     ecut=    62.47 Ry     beta= 0.33
     Davidson diagonalization with overlap

---- Real-time Memory Report at c_bands before calling an iterative solver
            44 MiB given to the printing process from OS
           138 MiB allocation reported by mallinfo(arena+hblkhd)
         20984 MiB available memory on the node where the printing process lives
------------------
     ethr =  2.67E-05,  avg # of iterations =  1.0

     negative rho (up, down):  1.570E-03 0.000E+00


     -----------------------------------------------
     Non-local corr. energy    =       0.13617640 Ry
     -----------------------------------------------


     total cpu time spent up to now is       85.0 secs

     total energy              =     -45.02602847 Ry
     estimated scf accuracy    <       0.00139357 Ry

     iteration # 15     ecut=    62.47 Ry     beta= 0.33
     Davidson diagonalization with overlap

---- Real-time Memory Report at c_bands before calling an iterative solver
            44 MiB given to the printing process from OS
           138 MiB allocation reported by mallinfo(arena+hblkhd)
         20988 MiB available memory on the node where the printing process lives
------------------
     ethr =  1.74E-05,  avg # of iterations =  5.0

     negative rho (up, down):  1.556E-03 0.000E+00


     -----------------------------------------------
     Non-local corr. energy    =       0.13615552 Ry
     -----------------------------------------------


     total cpu time spent up to now is       89.5 secs

     total energy              =     -45.02645883 Ry
     estimated scf accuracy    <       0.00606206 Ry

     iteration # 16     ecut=    62.47 Ry     beta= 0.33
     Davidson diagonalization with overlap

---- Real-time Memory Report at c_bands before calling an iterative solver
            44 MiB given to the printing process from OS
           138 MiB allocation reported by mallinfo(arena+hblkhd)
         20988 MiB available memory on the node where the printing process lives
------------------
     ethr =  1.74E-05,  avg # of iterations =  2.0

     negative rho (up, down):  1.571E-03 0.000E+00


     -----------------------------------------------
     Non-local corr. energy    =       0.13593718 Ry
     -----------------------------------------------


     total cpu time spent up to now is       93.9 secs

     total energy              =     -45.02270749 Ry
     estimated scf accuracy    <       0.00645607 Ry

     iteration # 17     ecut=    62.47 Ry     beta= 0.33
     Davidson diagonalization with overlap

---- Real-time Memory Report at c_bands before calling an iterative solver
            44 MiB given to the printing process from OS
           138 MiB allocation reported by mallinfo(arena+hblkhd)
         20988 MiB available memory on the node where the printing process lives
------------------
     ethr =  1.74E-05,  avg # of iterations =  7.0

     negative rho (up, down):  1.572E-03 0.000E+00


     -----------------------------------------------
     Non-local corr. energy    =       0.13592932 Ry
     -----------------------------------------------


     total cpu time spent up to now is       98.5 secs

     total energy              =     -45.02471013 Ry
     estimated scf accuracy    <       0.00102049 Ry

     iteration # 18     ecut=    62.47 Ry     beta= 0.33
     Davidson diagonalization with overlap

---- Real-time Memory Report at c_bands before calling an iterative solver
            44 MiB given to the printing process from OS
           138 MiB allocation reported by mallinfo(arena+hblkhd)
         20988 MiB available memory on the node where the printing process lives
------------------
     ethr =  1.28E-05,  avg # of iterations =  4.0

     negative rho (up, down):  1.566E-03 0.000E+00


     -----------------------------------------------
     Non-local corr. energy    =       0.13595838 Ry
     -----------------------------------------------


     total cpu time spent up to now is      102.9 secs

     total energy              =     -45.02483766 Ry
     estimated scf accuracy    <       0.00209159 Ry

     iteration # 19     ecut=    62.47 Ry     beta= 0.33
     Davidson diagonalization with overlap

---- Real-time Memory Report at c_bands before calling an iterative solver
            44 MiB given to the printing process from OS
           138 MiB allocation reported by mallinfo(arena+hblkhd)
         20988 MiB available memory on the node where the printing process lives
------------------
     ethr =  1.28E-05,  avg # of iterations =  2.0

     negative rho (up, down):  1.591E-03 0.000E+00


     -----------------------------------------------
     Non-local corr. energy    =       0.13585331 Ry
     -----------------------------------------------


     total cpu time spent up to now is      107.3 secs

     total energy              =     -45.02623808 Ry
     estimated scf accuracy    <       0.00158099 Ry

     iteration # 20     ecut=    62.47 Ry     beta= 0.33
     Davidson diagonalization with overlap

---- Real-time Memory Report at c_bands before calling an iterative solver
            44 MiB given to the printing process from OS
           138 MiB allocation reported by mallinfo(arena+hblkhd)
         20988 MiB available memory on the node where the printing process lives
------------------
     ethr =  1.28E-05,  avg # of iterations =  5.0

     negative rho (up, down):  1.565E-03 0.000E+00


     -----------------------------------------------
     Non-local corr. energy    =       0.13609241 Ry
     -----------------------------------------------


     total cpu time spent up to now is      111.8 secs

     total energy              =     -45.02349966 Ry
     estimated scf accuracy    <       0.00581388 Ry

     iteration # 21     ecut=    62.47 Ry     beta= 0.33
     Davidson diagonalization with overlap

---- Real-time Memory Report at c_bands before calling an iterative solver
            44 MiB given to the printing process from OS
           138 MiB allocation reported by mallinfo(arena+hblkhd)
         20988 MiB available memory on the node where the printing process lives
------------------
     ethr =  1.28E-05,  avg # of iterations =  5.0

     negative rho (up, down):  1.558E-03 0.000E+00


     -----------------------------------------------
     Non-local corr. energy    =       0.13626784 Ry
     -----------------------------------------------


     total cpu time spent up to now is      116.3 secs

     total energy              =     -45.02482186 Ry
     estimated scf accuracy    <       0.00030414 Ry

     iteration # 22     ecut=    62.47 Ry     beta= 0.33
     Davidson diagonalization with overlap

---- Real-time Memory Report at c_bands before calling an iterative solver
            44 MiB given to the printing process from OS
           138 MiB allocation reported by mallinfo(arena+hblkhd)
         20988 MiB available memory on the node where the printing process lives
------------------
     ethr =  3.80E-06,  avg # of iterations = 12.0

     negative rho (up, down):  1.571E-03 0.000E+00


     -----------------------------------------------
     Non-local corr. energy    =       0.13595898 Ry
     -----------------------------------------------


     total cpu time spent up to now is      121.0 secs

     total energy              =     -45.02106399 Ry
     estimated scf accuracy    <       0.01038131 Ry

     iteration # 23     ecut=    62.47 Ry     beta= 0.33
     Davidson diagonalization with overlap

---- Real-time Memory Report at c_bands before calling an iterative solver
            44 MiB given to the printing process from OS
           138 MiB allocation reported by mallinfo(arena+hblkhd)
         20984 MiB available memory on the node where the printing process lives
------------------
     ethr =  3.80E-06,  avg # of iterations = 13.0

     negative rho (up, down):  1.567E-03 0.000E+00


     -----------------------------------------------
     Non-local corr. energy    =       0.13623518 Ry
     -----------------------------------------------


     total cpu time spent up to now is      125.7 secs

     total energy              =     -45.02341342 Ry
     estimated scf accuracy    <       0.00312990 Ry

     iteration # 24     ecut=    62.47 Ry     beta= 0.33
     Davidson diagonalization with overlap

---- Real-time Memory Report at c_bands before calling an iterative solver
            44 MiB given to the printing process from OS
           138 MiB allocation reported by mallinfo(arena+hblkhd)
         20988 MiB available memory on the node where the printing process lives
------------------
     ethr =  3.80E-06,  avg # of iterations = 10.0

     negative rho (up, down):  1.566E-03 0.000E+00


     -----------------------------------------------
     Non-local corr. energy    =       0.13605612 Ry
     -----------------------------------------------


     total cpu time spent up to now is      130.3 secs

     total energy              =     -45.02382798 Ry
     estimated scf accuracy    <       0.00179115 Ry

     iteration # 25     ecut=    62.47 Ry     beta= 0.33
     Davidson diagonalization with overlap

---- Real-time Memory Report at c_bands before calling an iterative solver
            44 MiB given to the printing process from OS
           138 MiB allocation reported by mallinfo(arena+hblkhd)
         20988 MiB available memory on the node where the printing process lives
------------------
     ethr =  3.80E-06,  avg # of iterations =  9.0

     negative rho (up, down):  1.585E-03 0.000E+00


     -----------------------------------------------
     Non-local corr. energy    =       0.13604553 Ry
     -----------------------------------------------


     total cpu time spent up to now is      134.9 secs

     total energy              =     -45.02556680 Ry
     estimated scf accuracy    <       0.00149652 Ry

     iteration # 26     ecut=    62.47 Ry     beta= 0.33
     Davidson diagonalization with overlap

---- Real-time Memory Report at c_bands before calling an iterative solver
            44 MiB given to the printing process from OS
           138 MiB allocation reported by mallinfo(arena+hblkhd)
         20988 MiB available memory on the node where the printing process lives
------------------
     ethr =  3.80E-06,  avg # of iterations =  4.0

     negative rho (up, down):  1.590E-03 0.000E+00


     -----------------------------------------------
     Non-local corr. energy    =       0.13613694 Ry
     -----------------------------------------------


     total cpu time spent up to now is      139.4 secs

     total energy              =     -45.02500524 Ry
     estimated scf accuracy    <       0.00317927 Ry

     iteration # 27     ecut=    62.47 Ry     beta= 0.33
     Davidson diagonalization with overlap

---- Real-time Memory Report at c_bands before calling an iterative solver
            44 MiB given to the printing process from OS
           138 MiB allocation reported by mallinfo(arena+hblkhd)
         20988 MiB available memory on the node where the printing process lives
------------------
     ethr =  3.80E-06,  avg # of iterations =  2.0

     negative rho (up, down):  1.590E-03 0.000E+00


     -----------------------------------------------
     Non-local corr. energy    =       0.13616357 Ry
     -----------------------------------------------


     total cpu time spent up to now is      143.8 secs

     total energy              =     -45.02468731 Ry
     estimated scf accuracy    <       0.00209053 Ry

     iteration # 28     ecut=    62.47 Ry     beta= 0.33
     Davidson diagonalization with overlap

---- Real-time Memory Report at c_bands before calling an iterative solver
            44 MiB given to the printing process from OS
           138 MiB allocation reported by mallinfo(arena+hblkhd)
         20988 MiB available memory on the node where the printing process lives
------------------
     ethr =  3.80E-06,  avg # of iterations =  2.0

     negative rho (up, down):  1.587E-03 0.000E+00


     -----------------------------------------------
     Non-local corr. energy    =       0.13626053 Ry
     -----------------------------------------------


     total cpu time spent up to now is      148.2 secs

     total energy              =     -45.02419907 Ry
     estimated scf accuracy    <       0.00145272 Ry

     iteration # 29     ecut=    62.47 Ry     beta= 0.33
     Davidson diagonalization with overlap

---- Real-time Memory Report at c_bands before calling an iterative solver
            44 MiB given to the printing process from OS
           138 MiB allocation reported by mallinfo(arena+hblkhd)
         20988 MiB available memory on the node where the printing process lives
------------------
     ethr =  3.80E-06,  avg # of iterations =  7.0

     negative rho (up, down):  1.582E-03 0.000E+00


     -----------------------------------------------
     Non-local corr. energy    =       0.13625329 Ry
     -----------------------------------------------


     total cpu time spent up to now is      152.7 secs

     total energy              =     -45.02461993 Ry
     estimated scf accuracy    <       0.00016741 Ry

     iteration # 30     ecut=    62.47 Ry     beta= 0.33
     Davidson diagonalization with overlap

---- Real-time Memory Report at c_bands before calling an iterative solver
            44 MiB given to the printing process from OS
           138 MiB allocation reported by mallinfo(arena+hblkhd)
         20988 MiB available memory on the node where the printing process lives
------------------
     ethr =  2.09E-06,  avg # of iterations =  2.0

     negative rho (up, down):  1.615E-03 0.000E+00


     -----------------------------------------------
     Non-local corr. energy    =       0.13592833 Ry
     -----------------------------------------------


     total cpu time spent up to now is      157.1 secs

     total energy              =     -45.02570502 Ry
     estimated scf accuracy    <       0.00016001 Ry

     iteration # 31     ecut=    62.47 Ry     beta= 0.33
     Davidson diagonalization with overlap

---- Real-time Memory Report at c_bands before calling an iterative solver
            44 MiB given to the printing process from OS
           138 MiB allocation reported by mallinfo(arena+hblkhd)
         20988 MiB available memory on the node where the printing process lives
------------------
     ethr =  2.00E-06,  avg # of iterations = 13.0

     negative rho (up, down):  1.640E-03 0.000E+00


     -----------------------------------------------
     Non-local corr. energy    =       0.13594644 Ry
     -----------------------------------------------


     total cpu time spent up to now is      161.9 secs

     total energy              =     -45.02749031 Ry
     estimated scf accuracy    <       0.01178616 Ry

     iteration # 32     ecut=    62.47 Ry     beta= 0.33
     Davidson diagonalization with overlap

---- Real-time Memory Report at c_bands before calling an iterative solver
            44 MiB given to the printing process from OS
           138 MiB allocation reported by mallinfo(arena+hblkhd)
         20988 MiB available memory on the node where the printing process lives
------------------
     ethr =  2.00E-06,  avg # of iterations =  1.0

     negative rho (up, down):  1.645E-03 0.000E+00


     -----------------------------------------------
     Non-local corr. energy    =       0.13597933 Ry
     -----------------------------------------------


     total cpu time spent up to now is      166.3 secs

     total energy              =     -45.02633181 Ry
     estimated scf accuracy    <       0.01103668 Ry

     iteration # 33     ecut=    62.47 Ry     beta= 0.33
     Davidson diagonalization with overlap

---- Real-time Memory Report at c_bands before calling an iterative solver
            44 MiB given to the printing process from OS
           138 MiB allocation reported by mallinfo(arena+hblkhd)
         20988 MiB available memory on the node where the printing process lives
------------------
     ethr =  2.00E-06,  avg # of iterations =  3.0

     negative rho (up, down):  1.651E-03 0.000E+00


     -----------------------------------------------
     Non-local corr. energy    =       0.13596908 Ry
     -----------------------------------------------


     total cpu time spent up to now is      170.7 secs

     total energy              =     -45.02616429 Ry
     estimated scf accuracy    <       0.00874799 Ry

     iteration # 34     ecut=    62.47 Ry     beta= 0.33
     Davidson diagonalization with overlap

---- Real-time Memory Report at c_bands before calling an iterative solver
            44 MiB given to the printing process from OS
           138 MiB allocation reported by mallinfo(arena+hblkhd)
         20984 MiB available memory on the node where the printing process lives
------------------
     ethr =  2.00E-06,  avg # of iterations =  3.0

     negative rho (up, down):  1.657E-03 0.000E+00


     -----------------------------------------------
     Non-local corr. energy    =       0.13594587 Ry
     -----------------------------------------------


     total cpu time spent up to now is      175.2 secs

     total energy              =     -45.02635350 Ry
     estimated scf accuracy    <       0.00790922 Ry

     iteration # 35     ecut=    62.47 Ry     beta= 0.33
     Davidson diagonalization with overlap

---- Real-time Memory Report at c_bands before calling an iterative solver
            44 MiB given to the printing process from OS
           138 MiB allocation reported by mallinfo(arena+hblkhd)
         20988 MiB available memory on the node where the printing process lives
------------------
     ethr =  2.00E-06,  avg # of iterations =  1.0

     negative rho (up, down):  1.705E-03 0.000E+00


     -----------------------------------------------
     Non-local corr. energy    =       0.13596794 Ry
     -----------------------------------------------


     total cpu time spent up to now is      179.6 secs

     total energy              =     -45.02810887 Ry
     estimated scf accuracy    <       0.00813192 Ry

     iteration # 36     ecut=    62.47 Ry     beta= 0.33
     Davidson diagonalization with overlap

---- Real-time Memory Report at c_bands before calling an iterative solver
            44 MiB given to the printing process from OS
           138 MiB allocation reported by mallinfo(arena+hblkhd)
         20988 MiB available memory on the node where the printing process lives
------------------
     ethr =  2.00E-06,  avg # of iterations =  2.0

     negative rho (up, down):  1.715E-03 0.000E+00


     -----------------------------------------------
     Non-local corr. energy    =       0.13593396 Ry
     -----------------------------------------------


     total cpu time spent up to now is      184.0 secs

     total energy              =     -45.02876958 Ry
     estimated scf accuracy    <       0.01101178 Ry

     iteration # 37     ecut=    62.47 Ry     beta= 0.33
     Davidson diagonalization with overlap

---- Real-time Memory Report at c_bands before calling an iterative solver
            44 MiB given to the printing process from OS
           138 MiB allocation reported by mallinfo(arena+hblkhd)
         20988 MiB available memory on the node where the printing process lives
------------------
     ethr =  2.00E-06,  avg # of iterations =  3.0

     negative rho (up, down):  1.721E-03 0.000E+00


     -----------------------------------------------
     Non-local corr. energy    =       0.13593293 Ry
     -----------------------------------------------


     total cpu time spent up to now is      188.4 secs

     total energy              =     -45.02873811 Ry
     estimated scf accuracy    <       0.01316420 Ry

     iteration # 38     ecut=    62.47 Ry     beta= 0.33
     Davidson diagonalization with overlap

---- Real-time Memory Report at c_bands before calling an iterative solver
            44 MiB given to the printing process from OS
           138 MiB allocation reported by mallinfo(arena+hblkhd)
         20988 MiB available memory on the node where the printing process lives
------------------
     ethr =  2.00E-06,  avg # of iterations =  2.0

     negative rho (up, down):  1.700E-03 0.000E+00


     -----------------------------------------------
     Non-local corr. energy    =       0.13587780 Ry
     -----------------------------------------------


     total cpu time spent up to now is      192.8 secs

     total energy              =     -45.02797494 Ry
     estimated scf accuracy    <       0.01320588 Ry

     iteration # 39     ecut=    62.47 Ry     beta= 0.33
     Davidson diagonalization with overlap

---- Real-time Memory Report at c_bands before calling an iterative solver
            44 MiB given to the printing process from OS
           138 MiB allocation reported by mallinfo(arena+hblkhd)
         20988 MiB available memory on the node where the printing process lives
------------------
     ethr =  2.00E-06,  avg # of iterations =  1.0

     negative rho (up, down):  1.659E-03 0.000E+00


     -----------------------------------------------
     Non-local corr. energy    =       0.13590702 Ry
     -----------------------------------------------


     total cpu time spent up to now is      197.2 secs

     total energy              =     -45.02547048 Ry
     estimated scf accuracy    <       0.01204309 Ry

     iteration # 40     ecut=    62.47 Ry     beta= 0.33
     Davidson diagonalization with overlap

---- Real-time Memory Report at c_bands before calling an iterative solver
            44 MiB given to the printing process from OS
           138 MiB allocation reported by mallinfo(arena+hblkhd)
         20984 MiB available memory on the node where the printing process lives
------------------
     ethr =  2.00E-06,  avg # of iterations =  8.0

     negative rho (up, down):  1.655E-03 0.000E+00


     -----------------------------------------------
     Non-local corr. energy    =       0.13585521 Ry
     -----------------------------------------------


     total cpu time spent up to now is      201.8 secs

     total energy              =     -45.02648076 Ry
     estimated scf accuracy    <       0.00454029 Ry

     iteration # 41     ecut=    62.47 Ry     beta= 0.33
     Davidson diagonalization with overlap

---- Real-time Memory Report at c_bands before calling an iterative solver
            44 MiB given to the printing process from OS
           138 MiB allocation reported by mallinfo(arena+hblkhd)
         20988 MiB available memory on the node where the printing process lives
------------------
     ethr =  2.00E-06,  avg # of iterations =  4.0

     negative rho (up, down):  1.636E-03 0.000E+00


     -----------------------------------------------
     Non-local corr. energy    =       0.13598940 Ry
     -----------------------------------------------


     total cpu time spent up to now is      206.2 secs

     total energy              =     -45.02548063 Ry
     estimated scf accuracy    <       0.00580032 Ry

     iteration # 42     ecut=    62.47 Ry     beta= 0.33
     Davidson diagonalization with overlap

---- Real-time Memory Report at c_bands before calling an iterative solver
            44 MiB given to the printing process from OS
           138 MiB allocation reported by mallinfo(arena+hblkhd)
         20988 MiB available memory on the node where the printing process lives
------------------
     ethr =  2.00E-06,  avg # of iterations =  4.0

     negative rho (up, down):  1.632E-03 0.000E+00


     -----------------------------------------------
     Non-local corr. energy    =       0.13589999 Ry
     -----------------------------------------------


     total cpu time spent up to now is      210.7 secs

     total energy              =     -45.02604408 Ry
     estimated scf accuracy    <       0.00373101 Ry

     iteration # 43     ecut=    62.47 Ry     beta= 0.33
     Davidson diagonalization with overlap

---- Real-time Memory Report at c_bands before calling an iterative solver
            44 MiB given to the printing process from OS
           138 MiB allocation reported by mallinfo(arena+hblkhd)
         20988 MiB available memory on the node where the printing process lives
------------------
     ethr =  2.00E-06,  avg # of iterations =  2.0

     negative rho (up, down):  1.618E-03 0.000E+00


     -----------------------------------------------
     Non-local corr. energy    =       0.13604128 Ry
     -----------------------------------------------


     total cpu time spent up to now is      215.1 secs

     total energy              =     -45.02480853 Ry
     estimated scf accuracy    <       0.00458322 Ry

     iteration # 44     ecut=    62.47 Ry     beta= 0.33
     Davidson diagonalization with overlap

---- Real-time Memory Report at c_bands before calling an iterative solver
            44 MiB given to the printing process from OS
           138 MiB allocation reported by mallinfo(arena+hblkhd)
         20988 MiB available memory on the node where the printing process lives
------------------
     ethr =  2.00E-06,  avg # of iterations =  6.0

     negative rho (up, down):  1.612E-03 0.000E+00


     -----------------------------------------------
     Non-local corr. energy    =       0.13605749 Ry
     -----------------------------------------------


     total cpu time spent up to now is      219.6 secs

     total energy              =     -45.02482939 Ry
     estimated scf accuracy    <       0.00151782 Ry

     iteration # 45     ecut=    62.47 Ry     beta= 0.33
     Davidson diagonalization with overlap

---- Real-time Memory Report at c_bands before calling an iterative solver
            44 MiB given to the printing process from OS
           138 MiB allocation reported by mallinfo(arena+hblkhd)
         20988 MiB available memory on the node where the printing process lives
------------------
     ethr =  2.00E-06,  avg # of iterations =  2.0

     negative rho (up, down):  1.605E-03 0.000E+00


     -----------------------------------------------
     Non-local corr. energy    =       0.13622081 Ry
     -----------------------------------------------


     total cpu time spent up to now is      224.0 secs

     total energy              =     -45.02424092 Ry
     estimated scf accuracy    <       0.00106963 Ry

     iteration # 46     ecut=    62.47 Ry     beta= 0.33
     Davidson diagonalization with overlap

---- Real-time Memory Report at c_bands before calling an iterative solver
            44 MiB given to the printing process from OS
           138 MiB allocation reported by mallinfo(arena+hblkhd)
         20988 MiB available memory on the node where the printing process lives
------------------
     ethr =  2.00E-06,  avg # of iterations = 12.0

     negative rho (up, down):  1.593E-03 0.000E+00


     -----------------------------------------------
     Non-local corr. energy    =       0.13621813 Ry
     -----------------------------------------------


     total cpu time spent up to now is      228.7 secs

     total energy              =     -45.02460550 Ry
     estimated scf accuracy    <       0.00000823 Ry

     iteration # 47     ecut=    62.47 Ry     beta= 0.33
     Davidson diagonalization with overlap

---- Real-time Memory Report at c_bands before calling an iterative solver
            44 MiB given to the printing process from OS
           138 MiB allocation reported by mallinfo(arena+hblkhd)
         20988 MiB available memory on the node where the printing process lives
------------------
     ethr =  1.03E-07,  avg # of iterations = 12.0

     negative rho (up, down):  1.585E-03 0.000E+00


     -----------------------------------------------
     Non-local corr. energy    =       0.13619504 Ry
     -----------------------------------------------


     total cpu time spent up to now is      233.4 secs

     total energy              =     -45.02456368 Ry
     estimated scf accuracy    <       0.00027374 Ry

     iteration # 48     ecut=    62.47 Ry     beta= 0.33
     Davidson diagonalization with overlap

---- Real-time Memory Report at c_bands before calling an iterative solver
            44 MiB given to the printing process from OS
           138 MiB allocation reported by mallinfo(arena+hblkhd)
         20988 MiB available memory on the node where the printing process lives
------------------
     ethr =  1.03E-07,  avg # of iterations = 12.0

     negative rho (up, down):  1.581E-03 0.000E+00


     -----------------------------------------------
     Non-local corr. energy    =       0.13619021 Ry
     -----------------------------------------------


     total cpu time spent up to now is      238.1 secs

     total energy              =     -45.02464579 Ry
     estimated scf accuracy    <       0.00003420 Ry

     iteration # 49     ecut=    62.47 Ry     beta= 0.33
     Davidson diagonalization with overlap

---- Real-time Memory Report at c_bands before calling an iterative solver
            44 MiB given to the printing process from OS
           138 MiB allocation reported by mallinfo(arena+hblkhd)
         20988 MiB available memory on the node where the printing process lives
------------------
     ethr =  1.03E-07,  avg # of iterations =  2.0

     negative rho (up, down):  1.578E-03 0.000E+00


     -----------------------------------------------
     Non-local corr. energy    =       0.13619650 Ry
     -----------------------------------------------


     total cpu time spent up to now is      242.5 secs

     total energy              =     -45.02463494 Ry
     estimated scf accuracy    <       0.00002550 Ry

     iteration # 50     ecut=    62.47 Ry     beta= 0.33
     Davidson diagonalization with overlap

---- Real-time Memory Report at c_bands before calling an iterative solver
            44 MiB given to the printing process from OS
           138 MiB allocation reported by mallinfo(arena+hblkhd)
         20988 MiB available memory on the node where the printing process lives
------------------
     ethr =  1.03E-07,  avg # of iterations =  4.0

     negative rho (up, down):  1.575E-03 0.000E+00


     -----------------------------------------------
     Non-local corr. energy    =       0.13620585 Ry
     -----------------------------------------------


     total cpu time spent up to now is      247.0 secs

     total energy              =     -45.02463538 Ry
     estimated scf accuracy    <       0.00000555 Ry

     iteration # 51     ecut=    62.47 Ry     beta= 0.33
     Davidson diagonalization with overlap

---- Real-time Memory Report at c_bands before calling an iterative solver
            44 MiB given to the printing process from OS
           138 MiB allocation reported by mallinfo(arena+hblkhd)
         20988 MiB available memory on the node where the printing process lives
------------------
     ethr =  6.93E-08,  avg # of iterations =  9.0

     negative rho (up, down):  1.574E-03 0.000E+00


     -----------------------------------------------
     Non-local corr. energy    =       0.13619757 Ry
     -----------------------------------------------


     total cpu time spent up to now is      251.6 secs

     total energy              =     -45.02463907 Ry
     estimated scf accuracy    <       0.00001793 Ry

     iteration # 52     ecut=    62.47 Ry     beta= 0.33
     Davidson diagonalization with overlap

---- Real-time Memory Report at c_bands before calling an iterative solver
            44 MiB given to the printing process from OS
           138 MiB allocation reported by mallinfo(arena+hblkhd)
         20988 MiB available memory on the node where the printing process lives
------------------
     ethr =  6.93E-08,  avg # of iterations =  2.0

     negative rho (up, down):  1.573E-03 0.000E+00


     -----------------------------------------------
     Non-local corr. energy    =       0.13618990 Ry
     -----------------------------------------------


     total cpu time spent up to now is      256.0 secs

     total energy              =     -45.02463701 Ry
     estimated scf accuracy    <       0.00000482 Ry

     iteration # 53     ecut=    62.47 Ry     beta= 0.33
     Davidson diagonalization with overlap

---- Real-time Memory Report at c_bands before calling an iterative solver
            44 MiB given to the printing process from OS
           138 MiB allocation reported by mallinfo(arena+hblkhd)
         20986 MiB available memory on the node where the printing process lives
------------------
     ethr =  6.03E-08,  avg # of iterations =  6.0

     negative rho (up, down):  1.573E-03 0.000E+00


     -----------------------------------------------
     Non-local corr. energy    =       0.13618971 Ry
     -----------------------------------------------


     total cpu time spent up to now is      260.5 secs

     total energy              =     -45.02464224 Ry
     estimated scf accuracy    <       0.00000270 Ry

     iteration # 54     ecut=    62.47 Ry     beta= 0.33
     Davidson diagonalization with overlap

---- Real-time Memory Report at c_bands before calling an iterative solver
            44 MiB given to the printing process from OS
           138 MiB allocation reported by mallinfo(arena+hblkhd)
         20982 MiB available memory on the node where the printing process lives
------------------
     ethr =  3.38E-08,  avg # of iterations =  4.0

     negative rho (up, down):  1.574E-03 0.000E+00


     -----------------------------------------------
     Non-local corr. energy    =       0.13619738 Ry
     -----------------------------------------------


     total cpu time spent up to now is      264.9 secs

     total energy              =     -45.02463974 Ry
     estimated scf accuracy    <       0.00000666 Ry

     iteration # 55     ecut=    62.47 Ry     beta= 0.33
     Davidson diagonalization with overlap

---- Real-time Memory Report at c_bands before calling an iterative solver
            44 MiB given to the printing process from OS
           138 MiB allocation reported by mallinfo(arena+hblkhd)
         20982 MiB available memory on the node where the printing process lives
------------------
     ethr =  3.38E-08,  avg # of iterations =  2.0

     negative rho (up, down):  1.574E-03 0.000E+00


     -----------------------------------------------
     Non-local corr. energy    =       0.13619970 Ry
     -----------------------------------------------


     total cpu time spent up to now is      269.4 secs

     total energy              =     -45.02463926 Ry
     estimated scf accuracy    <       0.00000176 Ry

     iteration # 56     ecut=    62.47 Ry     beta= 0.33
     Davidson diagonalization with overlap

---- Real-time Memory Report at c_bands before calling an iterative solver
            44 MiB given to the printing process from OS
           138 MiB allocation reported by mallinfo(arena+hblkhd)
         20982 MiB available memory on the node where the printing process lives
------------------
     ethr =  2.19E-08,  avg # of iterations =  5.0

     negative rho (up, down):  1.573E-03 0.000E+00


     -----------------------------------------------
     Non-local corr. energy    =       0.13619727 Ry
     -----------------------------------------------


     total cpu time spent up to now is      273.8 secs

     total energy              =     -45.02464068 Ry
     estimated scf accuracy    <       0.00000069 Ry

     iteration # 57     ecut=    62.47 Ry     beta= 0.33
     Davidson diagonalization with overlap

---- Real-time Memory Report at c_bands before calling an iterative solver
            44 MiB given to the printing process from OS
           138 MiB allocation reported by mallinfo(arena+hblkhd)
         20982 MiB available memory on the node where the printing process lives
------------------
     ethr =  8.57E-09,  avg # of iterations =  1.0

     negative rho (up, down):  1.573E-03 0.000E+00


     -----------------------------------------------
     Non-local corr. energy    =       0.13619603 Ry
     -----------------------------------------------


     total cpu time spent up to now is      278.2 secs

     total energy              =     -45.02464066 Ry
     estimated scf accuracy    <       0.00000017 Ry

     iteration # 58     ecut=    62.47 Ry     beta= 0.33
     Davidson diagonalization with overlap

---- Real-time Memory Report at c_bands before calling an iterative solver
            44 MiB given to the printing process from OS
           138 MiB allocation reported by mallinfo(arena+hblkhd)
         20982 MiB available memory on the node where the printing process lives
------------------
     ethr =  2.17E-09,  avg # of iterations =  5.0

     negative rho (up, down):  1.573E-03 0.000E+00


     -----------------------------------------------
     Non-local corr. energy    =       0.13619667 Ry
     -----------------------------------------------


     total cpu time spent up to now is      282.7 secs

     total energy              =     -45.02464076 Ry
     estimated scf accuracy    <       0.00000005 Ry

     iteration # 59     ecut=    62.47 Ry     beta= 0.33
     Davidson diagonalization with overlap

---- Real-time Memory Report at c_bands before calling an iterative solver
            44 MiB given to the printing process from OS
           138 MiB allocation reported by mallinfo(arena+hblkhd)
         20982 MiB available memory on the node where the printing process lives
------------------
     ethr =  6.04E-10,  avg # of iterations =  4.0

     negative rho (up, down):  1.573E-03 0.000E+00


     -----------------------------------------------
     Non-local corr. energy    =       0.13619614 Ry
     -----------------------------------------------


     total cpu time spent up to now is      287.2 secs

     total energy              =     -45.02464079 Ry
     estimated scf accuracy    <          4.4E-09 Ry

     iteration # 60     ecut=    62.47 Ry     beta= 0.33
     Davidson diagonalization with overlap

---- Real-time Memory Report at c_bands before calling an iterative solver
            44 MiB given to the printing process from OS
           138 MiB allocation reported by mallinfo(arena+hblkhd)
         20982 MiB available memory on the node where the printing process lives
------------------
     ethr =  5.47E-11,  avg # of iterations =  7.0

     negative rho (up, down):  1.573E-03 0.000E+00


     -----------------------------------------------
     Non-local corr. energy    =       0.13619597 Ry
     -----------------------------------------------


     total cpu time spent up to now is      291.7 secs

     total energy              =     -45.02464082 Ry
     estimated scf accuracy    <       0.00000002 Ry

     iteration # 61     ecut=    62.47 Ry     beta= 0.33
     Davidson diagonalization with overlap

---- Real-time Memory Report at c_bands before calling an iterative solver
            44 MiB given to the printing process from OS
           138 MiB allocation reported by mallinfo(arena+hblkhd)
         20982 MiB available memory on the node where the printing process lives
------------------
     ethr =  5.47E-11,  avg # of iterations =  2.0

     negative rho (up, down):  1.573E-03 0.000E+00


     -----------------------------------------------
     Non-local corr. energy    =       0.13619570 Ry
     -----------------------------------------------


     total cpu time spent up to now is      296.1 secs

     total energy              =     -45.02464084 Ry
     estimated scf accuracy    <       0.00000004 Ry

     iteration # 62     ecut=    62.47 Ry     beta= 0.33
     Davidson diagonalization with overlap

---- Real-time Memory Report at c_bands before calling an iterative solver
            44 MiB given to the printing process from OS
           138 MiB allocation reported by mallinfo(arena+hblkhd)
         20982 MiB available memory on the node where the printing process lives
------------------
     ethr =  5.47E-11,  avg # of iterations =  3.0

     negative rho (up, down):  1.573E-03 0.000E+00


     -----------------------------------------------
     Non-local corr. energy    =       0.13619691 Ry
     -----------------------------------------------


     total cpu time spent up to now is      300.6 secs

     total energy              =     -45.02464079 Ry
     estimated scf accuracy    <       0.00000006 Ry

     iteration # 63     ecut=    62.47 Ry     beta= 0.33
     Davidson diagonalization with overlap

---- Real-time Memory Report at c_bands before calling an iterative solver
            44 MiB given to the printing process from OS
           138 MiB allocation reported by mallinfo(arena+hblkhd)
         20981 MiB available memory on the node where the printing process lives
------------------
     ethr =  5.47E-11,  avg # of iterations = 10.0

     negative rho (up, down):  1.573E-03 0.000E+00


     -----------------------------------------------
     Non-local corr. energy    =       0.13619687 Ry
     -----------------------------------------------


     total cpu time spent up to now is      305.2 secs

     total energy              =     -45.02464082 Ry
     estimated scf accuracy    <       0.00000004 Ry

     iteration # 64     ecut=    62.47 Ry     beta= 0.33
     Davidson diagonalization with overlap

---- Real-time Memory Report at c_bands before calling an iterative solver
            44 MiB given to the printing process from OS
           138 MiB allocation reported by mallinfo(arena+hblkhd)
         20983 MiB available memory on the node where the printing process lives
------------------
     ethr =  5.47E-11,  avg # of iterations =  1.0

     negative rho (up, down):  1.573E-03 0.000E+00


     -----------------------------------------------
     Non-local corr. energy    =       0.13619659 Ry
     -----------------------------------------------


     total cpu time spent up to now is      309.6 secs

     total energy              =     -45.02464086 Ry
     estimated scf accuracy    <       0.00000004 Ry

     iteration # 65     ecut=    62.47 Ry     beta= 0.33
     Davidson diagonalization with overlap

---- Real-time Memory Report at c_bands before calling an iterative solver
            44 MiB given to the printing process from OS
           138 MiB allocation reported by mallinfo(arena+hblkhd)
         20982 MiB available memory on the node where the printing process lives
------------------
     ethr =  5.47E-11,  avg # of iterations =  2.0

     negative rho (up, down):  1.573E-03 0.000E+00


     -----------------------------------------------
     Non-local corr. energy    =       0.13619646 Ry
     -----------------------------------------------


     total cpu time spent up to now is      314.0 secs

     total energy              =     -45.02464085 Ry
     estimated scf accuracy    <       0.00000005 Ry

     iteration # 66     ecut=    62.47 Ry     beta= 0.33
     Davidson diagonalization with overlap

---- Real-time Memory Report at c_bands before calling an iterative solver
            44 MiB given to the printing process from OS
           138 MiB allocation reported by mallinfo(arena+hblkhd)
         20983 MiB available memory on the node where the printing process lives
------------------
     ethr =  5.47E-11,  avg # of iterations =  1.0

     negative rho (up, down):  1.573E-03 0.000E+00


     -----------------------------------------------
     Non-local corr. energy    =       0.13619622 Ry
     -----------------------------------------------


     total cpu time spent up to now is      318.4 secs

     total energy              =     -45.02464084 Ry
     estimated scf accuracy    <       0.00000004 Ry

     iteration # 67     ecut=    62.47 Ry     beta= 0.33
     Davidson diagonalization with overlap

---- Real-time Memory Report at c_bands before calling an iterative solver
            44 MiB given to the printing process from OS
           138 MiB allocation reported by mallinfo(arena+hblkhd)
         20983 MiB available memory on the node where the printing process lives
------------------
     ethr =  5.47E-11,  avg # of iterations =  3.0

     negative rho (up, down):  1.573E-03 0.000E+00


     -----------------------------------------------
     Non-local corr. energy    =       0.13619612 Ry
     -----------------------------------------------


     total cpu time spent up to now is      322.9 secs

     total energy              =     -45.02464084 Ry
     estimated scf accuracy    <       0.00000002 Ry

     iteration # 68     ecut=    62.47 Ry     beta= 0.33
     Davidson diagonalization with overlap

---- Real-time Memory Report at c_bands before calling an iterative solver
            44 MiB given to the printing process from OS
           138 MiB allocation reported by mallinfo(arena+hblkhd)
         20983 MiB available memory on the node where the printing process lives
------------------
     ethr =  5.47E-11,  avg # of iterations =  3.0

     negative rho (up, down):  1.573E-03 0.000E+00


     -----------------------------------------------
     Non-local corr. energy    =       0.13619568 Ry
     -----------------------------------------------


     total cpu time spent up to now is      327.4 secs

     total energy              =     -45.02464085 Ry
     estimated scf accuracy    <          6.0E-10 Ry

     iteration # 69     ecut=    62.47 Ry     beta= 0.33
     Davidson diagonalization with overlap

---- Real-time Memory Report at c_bands before calling an iterative solver
            44 MiB given to the printing process from OS
           138 MiB allocation reported by mallinfo(arena+hblkhd)
         20983 MiB available memory on the node where the printing process lives
------------------
     ethr =  7.56E-12,  avg # of iterations = 12.0

     negative rho (up, down):  1.573E-03 0.000E+00


     -----------------------------------------------
     Non-local corr. energy    =       0.13619604 Ry
     -----------------------------------------------


     total cpu time spent up to now is      332.1 secs

     total energy              =     -45.02464084 Ry
     estimated scf accuracy    <       0.00000003 Ry

     iteration # 70     ecut=    62.47 Ry     beta= 0.33
     Davidson diagonalization with overlap

---- Real-time Memory Report at c_bands before calling an iterative solver
            44 MiB given to the printing process from OS
           138 MiB allocation reported by mallinfo(arena+hblkhd)
         20983 MiB available memory on the node where the printing process lives
------------------
     ethr =  7.56E-12,  avg # of iterations = 11.0

     negative rho (up, down):  1.573E-03 0.000E+00


     -----------------------------------------------
     Non-local corr. energy    =       0.13619603 Ry
     -----------------------------------------------


     total cpu time spent up to now is      336.8 secs

     total energy              =     -45.02464085 Ry
     estimated scf accuracy    <          2.2E-11 Ry

     iteration # 71     ecut=    62.47 Ry     beta= 0.33
     Davidson diagonalization with overlap

---- Real-time Memory Report at c_bands before calling an iterative solver
            44 MiB given to the printing process from OS
           138 MiB allocation reported by mallinfo(arena+hblkhd)
         20983 MiB available memory on the node where the printing process lives
------------------
     ethr =  2.76E-13,  avg # of iterations =  7.0

     negative rho (up, down):  1.573E-03 0.000E+00


     -----------------------------------------------
     Non-local corr. energy    =       0.13619608 Ry
     -----------------------------------------------


     total cpu time spent up to now is      341.2 secs

     total energy              =     -45.02464085 Ry
     estimated scf accuracy    <          1.9E-11 Ry

     iteration # 72     ecut=    62.47 Ry     beta= 0.33
     Davidson diagonalization with overlap

---- Real-time Memory Report at c_bands before calling an iterative solver
            44 MiB given to the printing process from OS
           138 MiB allocation reported by mallinfo(arena+hblkhd)
         20979 MiB available memory on the node where the printing process lives
------------------
     ethr =  2.39E-13,  avg # of iterations = 10.0

     negative rho (up, down):  1.573E-03 0.000E+00


     -----------------------------------------------
     Non-local corr. energy    =       0.13619608 Ry
     -----------------------------------------------


     total cpu time spent up to now is      345.9 secs

     total energy              =     -45.02464085 Ry
     estimated scf accuracy    <          3.9E-10 Ry

     iteration # 73     ecut=    62.47 Ry     beta= 0.33
     Davidson diagonalization with overlap

---- Real-time Memory Report at c_bands before calling an iterative solver
            44 MiB given to the printing process from OS
           138 MiB allocation reported by mallinfo(arena+hblkhd)
         20983 MiB available memory on the node where the printing process lives
------------------
     ethr =  2.39E-13,  avg # of iterations =  1.0

     negative rho (up, down):  1.573E-03 0.000E+00


     -----------------------------------------------
     Non-local corr. energy    =       0.13619607 Ry
     -----------------------------------------------


     total cpu time spent up to now is      350.3 secs

     total energy              =     -45.02464085 Ry
     estimated scf accuracy    <          3.3E-10 Ry

     iteration # 74     ecut=    62.47 Ry     beta= 0.33
     Davidson diagonalization with overlap

---- Real-time Memory Report at c_bands before calling an iterative solver
            44 MiB given to the printing process from OS
           138 MiB allocation reported by mallinfo(arena+hblkhd)
         20983 MiB available memory on the node where the printing process lives
------------------
     ethr =  2.39E-13,  avg # of iterations =  6.0

     negative rho (up, down):  1.573E-03 0.000E+00


     -----------------------------------------------
     Non-local corr. energy    =       0.13619608 Ry
     -----------------------------------------------


     total cpu time spent up to now is      354.8 secs

     total energy              =     -45.02464085 Ry
     estimated scf accuracy    <          8.5E-11 Ry

     iteration # 75     ecut=    62.47 Ry     beta= 0.33
     Davidson diagonalization with overlap

---- Real-time Memory Report at c_bands before calling an iterative solver
            44 MiB given to the printing process from OS
           138 MiB allocation reported by mallinfo(arena+hblkhd)
         20983 MiB available memory on the node where the printing process lives
------------------
     ethr =  2.39E-13,  avg # of iterations =  2.0

     negative rho (up, down):  1.573E-03 0.000E+00


     -----------------------------------------------
     Non-local corr. energy    =       0.13619608 Ry
     -----------------------------------------------


     total cpu time spent up to now is      359.2 secs

     total energy              =     -45.02464085 Ry
     estimated scf accuracy    <          1.3E-10 Ry

     iteration # 76     ecut=    62.47 Ry     beta= 0.33
     Davidson diagonalization with overlap

---- Real-time Memory Report at c_bands before calling an iterative solver
            44 MiB given to the printing process from OS
           138 MiB allocation reported by mallinfo(arena+hblkhd)
         20983 MiB available memory on the node where the printing process lives
------------------
     ethr =  2.39E-13,  avg # of iterations =  2.0

     negative rho (up, down):  1.573E-03 0.000E+00


     -----------------------------------------------
     Non-local corr. energy    =       0.13619607 Ry
     -----------------------------------------------


     total cpu time spent up to now is      363.6 secs

     total energy              =     -45.02464085 Ry
     estimated scf accuracy    <          2.0E-10 Ry

     iteration # 77     ecut=    62.47 Ry     beta= 0.33
     Davidson diagonalization with overlap

---- Real-time Memory Report at c_bands before calling an iterative solver
            44 MiB given to the printing process from OS
           138 MiB allocation reported by mallinfo(arena+hblkhd)
         20975 MiB available memory on the node where the printing process lives
------------------
     ethr =  2.39E-13,  avg # of iterations =  1.0

     negative rho (up, down):  1.573E-03 0.000E+00


     -----------------------------------------------
     Non-local corr. energy    =       0.13619606 Ry
     -----------------------------------------------


     total cpu time spent up to now is      368.1 secs

     total energy              =     -45.02464085 Ry
     estimated scf accuracy    <          1.5E-10 Ry

     iteration # 78     ecut=    62.47 Ry     beta= 0.33
     Davidson diagonalization with overlap

---- Real-time Memory Report at c_bands before calling an iterative solver
            44 MiB given to the printing process from OS
           138 MiB allocation reported by mallinfo(arena+hblkhd)
         20983 MiB available memory on the node where the printing process lives
------------------
     ethr =  2.39E-13,  avg # of iterations =  2.0

     negative rho (up, down):  1.573E-03 0.000E+00


     -----------------------------------------------
     Non-local corr. energy    =       0.13619607 Ry
     -----------------------------------------------


     total cpu time spent up to now is      372.5 secs

     total energy              =     -45.02464085 Ry
     estimated scf accuracy    <          9.4E-11 Ry

     iteration # 79     ecut=    62.47 Ry     beta= 0.33
     Davidson diagonalization with overlap

---- Real-time Memory Report at c_bands before calling an iterative solver
            44 MiB given to the printing process from OS
           138 MiB allocation reported by mallinfo(arena+hblkhd)
         20983 MiB available memory on the node where the printing process lives
------------------
     ethr =  2.39E-13,  avg # of iterations =  1.0

     negative rho (up, down):  1.573E-03 0.000E+00


     -----------------------------------------------
     Non-local corr. energy    =       0.13619606 Ry
     -----------------------------------------------


     total cpu time spent up to now is      376.9 secs

     total energy              =     -45.02464085 Ry
     estimated scf accuracy    <          8.5E-11 Ry

     iteration # 80     ecut=    62.47 Ry     beta= 0.33
     Davidson diagonalization with overlap

---- Real-time Memory Report at c_bands before calling an iterative solver
            44 MiB given to the printing process from OS
           138 MiB allocation reported by mallinfo(arena+hblkhd)
         20983 MiB available memory on the node where the printing process lives
------------------
     ethr =  2.39E-13,  avg # of iterations =  2.0

     negative rho (up, down):  1.573E-03 0.000E+00


     -----------------------------------------------
     Non-local corr. energy    =       0.13619605 Ry
     -----------------------------------------------


     total cpu time spent up to now is      381.3 secs

     total energy              =     -45.02464085 Ry
     estimated scf accuracy    <          4.0E-11 Ry

     iteration # 81     ecut=    62.47 Ry     beta= 0.33
     Davidson diagonalization with overlap

---- Real-time Memory Report at c_bands before calling an iterative solver
            44 MiB given to the printing process from OS
           138 MiB allocation reported by mallinfo(arena+hblkhd)
         20983 MiB available memory on the node where the printing process lives
------------------
     ethr =  2.39E-13,  avg # of iterations =  1.0

     negative rho (up, down):  1.573E-03 0.000E+00


     -----------------------------------------------
     Non-local corr. energy    =       0.13619605 Ry
     -----------------------------------------------


     total cpu time spent up to now is      385.7 secs

     total energy              =     -45.02464085 Ry
     estimated scf accuracy    <          5.1E-11 Ry

     iteration # 82     ecut=    62.47 Ry     beta= 0.33
     Davidson diagonalization with overlap

[...]

---- Real-time Memory Report at c_bands before calling an iterative solver
            45 MiB given to the printing process from OS
           286 MiB allocation reported by mallinfo(arena+hblkhd)
         20737 MiB available memory on the node where the printing process lives
------------------
     ethr =  1.00E-13,  avg # of iterations =  2.0

     negative rho (up, down):  1.572E-03 0.000E+00


     -----------------------------------------------
     Non-local corr. energy    =       0.13617903 Ry
     -----------------------------------------------


     total cpu time spent up to now is     1825.9 secs

     total energy              =     -45.02469387 Ry
     estimated scf accuracy    <          1.4E-13 Ry

     iteration # 86     ecut=    62.47 Ry     beta= 0.33
     Davidson diagonalization with overlap

---- Real-time Memory Report at c_bands before calling an iterative solver
            45 MiB given to the printing process from OS
           286 MiB allocation reported by mallinfo(arena+hblkhd)
         20739 MiB available memory on the node where the printing process lives
------------------
     ethr =  1.00E-13,  avg # of iterations =  1.0

     negative rho (up, down):  1.572E-03 0.000E+00


     -----------------------------------------------
     Non-local corr. energy    =       0.13617902 Ry
     -----------------------------------------------


     total cpu time spent up to now is     1830.3 secs

     total energy              =     -45.02469387 Ry
     estimated scf accuracy    <          1.1E-13 Ry

     iteration # 87     ecut=    62.47 Ry     beta= 0.33
     Davidson diagonalization with overlap

---- Real-time Memory Report at c_bands before calling an iterative solver
            45 MiB given to the printing process from OS
           286 MiB allocation reported by mallinfo(arena+hblkhd)
         20737 MiB available memory on the node where the printing process lives
------------------
     ethr =  1.00E-13,  avg # of iterations =  1.0

     negative rho (up, down):  1.572E-03 0.000E+00


     -----------------------------------------------
     Non-local corr. energy    =       0.13617902 Ry
     -----------------------------------------------


     total cpu time spent up to now is     1834.7 secs

     total energy              =     -45.02469387 Ry
     estimated scf accuracy    <          4.1E-13 Ry

     iteration # 88     ecut=    62.47 Ry     beta= 0.33
     Davidson diagonalization with overlap

---- Real-time Memory Report at c_bands before calling an iterative solver
            45 MiB given to the printing process from OS
           286 MiB allocation reported by mallinfo(arena+hblkhd)
         20737 MiB available memory on the node where the printing process lives
------------------
     ethr =  1.00E-13,  avg # of iterations =  1.0

     negative rho (up, down):  1.572E-03 0.000E+00


     -----------------------------------------------
     Non-local corr. energy    =       0.13617902 Ry
     -----------------------------------------------


     total cpu time spent up to now is     1839.1 secs

     total energy              =     -45.02469387 Ry
     estimated scf accuracy    <          4.8E-13 Ry

     iteration # 89     ecut=    62.47 Ry     beta= 0.33
     Davidson diagonalization with overlap

---- Real-time Memory Report at c_bands before calling an iterative solver
            45 MiB given to the printing process from OS
           286 MiB allocation reported by mallinfo(arena+hblkhd)
         20737 MiB available memory on the node where the printing process lives
------------------
     ethr =  1.00E-13,  avg # of iterations =  1.0

     negative rho (up, down):  1.572E-03 0.000E+00


     -----------------------------------------------
     Non-local corr. energy    =       0.13617902 Ry
     -----------------------------------------------


     total cpu time spent up to now is     1843.5 secs

     total energy              =     -45.02469387 Ry
     estimated scf accuracy    <          7.2E-13 Ry

     iteration # 90     ecut=    62.47 Ry     beta= 0.33
     Davidson diagonalization with overlap

---- Real-time Memory Report at c_bands before calling an iterative solver
            45 MiB given to the printing process from OS
           286 MiB allocation reported by mallinfo(arena+hblkhd)
         20737 MiB available memory on the node where the printing process lives
------------------
     ethr =  1.00E-13,  avg # of iterations =  1.0

     negative rho (up, down):  1.572E-03 0.000E+00


     -----------------------------------------------
     Non-local corr. energy    =       0.13617903 Ry
     -----------------------------------------------


     total cpu time spent up to now is     1847.8 secs

     total energy              =     -45.02469387 Ry
     estimated scf accuracy    <          7.7E-13 Ry

     iteration # 91     ecut=    62.47 Ry     beta= 0.33
     Davidson diagonalization with overlap

---- Real-time Memory Report at c_bands before calling an iterative solver
            45 MiB given to the printing process from OS
           286 MiB allocation reported by mallinfo(arena+hblkhd)
         20737 MiB available memory on the node where the printing process lives
------------------
     ethr =  1.00E-13,  avg # of iterations =  1.0

     negative rho (up, down):  1.572E-03 0.000E+00


     -----------------------------------------------
     Non-local corr. energy    =       0.13617903 Ry
     -----------------------------------------------


     total cpu time spent up to now is     1852.3 secs

     total energy              =     -45.02469387 Ry
     estimated scf accuracy    <          3.6E-13 Ry

     iteration # 92     ecut=    62.47 Ry     beta= 0.33
     Davidson diagonalization with overlap

---- Real-time Memory Report at c_bands before calling an iterative solver
            45 MiB given to the printing process from OS
           286 MiB allocation reported by mallinfo(arena+hblkhd)
         20737 MiB available memory on the node where the printing process lives
------------------
     ethr =  1.00E-13,  avg # of iterations =  1.0

     negative rho (up, down):  1.572E-03 0.000E+00


     -----------------------------------------------
     Non-local corr. energy    =       0.13617903 Ry
     -----------------------------------------------


     total cpu time spent up to now is     1856.6 secs

     total energy              =     -45.02469387 Ry
     estimated scf accuracy    <          1.9E-13 Ry

     iteration # 93     ecut=    62.47 Ry     beta= 0.33
     Davidson diagonalization with overlap

---- Real-time Memory Report at c_bands before calling an iterative solver
            45 MiB given to the printing process from OS
           286 MiB allocation reported by mallinfo(arena+hblkhd)
         20737 MiB available memory on the node where the printing process lives
------------------
     ethr =  1.00E-13,  avg # of iterations =  1.0

     negative rho (up, down):  1.572E-03 0.000E+00


     -----------------------------------------------
     Non-local corr. energy    =       0.13617903 Ry
     -----------------------------------------------


     total cpu time spent up to now is     1861.0 secs

     total energy              =     -45.02469387 Ry
     estimated scf accuracy    <          1.2E-13 Ry

     iteration # 94     ecut=    62.47 Ry     beta= 0.33
     Davidson diagonalization with overlap

---- Real-time Memory Report at c_bands before calling an iterative solver
            45 MiB given to the printing process from OS
           286 MiB allocation reported by mallinfo(arena+hblkhd)
         20737 MiB available memory on the node where the printing process lives
------------------
     ethr =  1.00E-13,  avg # of iterations =  1.0

     negative rho (up, down):  1.572E-03 0.000E+00


     -----------------------------------------------
     Non-local corr. energy    =       0.13617903 Ry
     -----------------------------------------------


     total cpu time spent up to now is     1865.4 secs

     total energy              =     -45.02469387 Ry
     estimated scf accuracy    <          2.8E-13 Ry

     iteration # 95     ecut=    62.47 Ry     beta= 0.33
     Davidson diagonalization with overlap

---- Real-time Memory Report at c_bands before calling an iterative solver
            45 MiB given to the printing process from OS
           286 MiB allocation reported by mallinfo(arena+hblkhd)
         20737 MiB available memory on the node where the printing process lives
------------------
     ethr =  1.00E-13,  avg # of iterations =  1.0

     negative rho (up, down):  1.572E-03 0.000E+00


     -----------------------------------------------
     Non-local corr. energy    =       0.13617903 Ry
     -----------------------------------------------


     total cpu time spent up to now is     1869.8 secs

     total energy              =     -45.02469387 Ry
     estimated scf accuracy    <          2.9E-13 Ry

     iteration # 96     ecut=    62.47 Ry     beta= 0.33
     Davidson diagonalization with overlap

---- Real-time Memory Report at c_bands before calling an iterative solver
            45 MiB given to the printing process from OS
           286 MiB allocation reported by mallinfo(arena+hblkhd)
         20737 MiB available memory on the node where the printing process lives
------------------
     ethr =  1.00E-13,  avg # of iterations =  1.0

     negative rho (up, down):  1.572E-03 0.000E+00


     -----------------------------------------------
     Non-local corr. energy    =       0.13617903 Ry
     -----------------------------------------------


     total cpu time spent up to now is     1874.2 secs

     total energy              =     -45.02469387 Ry
     estimated scf accuracy    <          1.2E-13 Ry

     iteration # 97     ecut=    62.47 Ry     beta= 0.33
     Davidson diagonalization with overlap

---- Real-time Memory Report at c_bands before calling an iterative solver
            45 MiB given to the printing process from OS
           286 MiB allocation reported by mallinfo(arena+hblkhd)
         20737 MiB available memory on the node where the printing process lives
------------------
     ethr =  1.00E-13,  avg # of iterations =  1.0

     negative rho (up, down):  1.572E-03 0.000E+00


     -----------------------------------------------
     Non-local corr. energy    =       0.13617903 Ry
     -----------------------------------------------


     total cpu time spent up to now is     1878.6 secs

     total energy              =     -45.02469387 Ry
     estimated scf accuracy    <          1.1E-13 Ry

     iteration # 98     ecut=    62.47 Ry     beta= 0.33
     Davidson diagonalization with overlap

---- Real-time Memory Report at c_bands before calling an iterative solver
            45 MiB given to the printing process from OS
           286 MiB allocation reported by mallinfo(arena+hblkhd)
         20737 MiB available memory on the node where the printing process lives
------------------
     ethr =  1.00E-13,  avg # of iterations =  1.0

     negative rho (up, down):  1.572E-03 0.000E+00


     -----------------------------------------------
     Non-local corr. energy    =       0.13617903 Ry
     -----------------------------------------------


     total cpu time spent up to now is     1883.0 secs

     total energy              =     -45.02469387 Ry
     estimated scf accuracy    <          8.8E-14 Ry

     iteration # 99     ecut=    62.47 Ry     beta= 0.33
     Davidson diagonalization with overlap

---- Real-time Memory Report at c_bands before calling an iterative solver
            45 MiB given to the printing process from OS
           286 MiB allocation reported by mallinfo(arena+hblkhd)
         20737 MiB available memory on the node where the printing process lives
------------------
     ethr =  1.00E-13,  avg # of iterations =  1.0

     negative rho (up, down):  1.572E-03 0.000E+00


     -----------------------------------------------
     Non-local corr. energy    =       0.13617903 Ry
     -----------------------------------------------


     total cpu time spent up to now is     1887.3 secs

     End of self-consistent calculation

          k = 0.0000 0.0000 0.0000 (450127 PWs)   bands (ev):

   -25.6222 -13.5477  -9.6928  -7.6568

     occupation numbers 
     1.0000   1.0000   1.0000   1.0000

     highest occupied level (ev):    -7.6568

!    total energy              =     -45.02469387 Ry
     total all-electron energy =      -153.871576 Ry
     estimated scf accuracy    <          9.2E-15 Ry

     The total energy is the sum of the following terms:
     one-electron contribution =     -68.85992093 Ry
     hartree contribution      =      36.11636589 Ry
     xc contribution           =      -9.22873836 Ry
     ewald contribution        =       7.17339320 Ry
     one-center paw contrib.   =     -10.22579367 Ry
      -> PAW hartree energy AE =      27.89684194 Ry
      -> PAW hartree energy PS =     -27.86215720 Ry
      -> PAW xc energy AE      =     -17.90388687 Ry
      -> PAW xc energy PS      =       7.64465362 Ry
      -> total E_H with PAW    =      36.15105063 Ry
      -> total E_XC with PAW   =     -19.48797161 Ry

     convergence has been achieved in  99 iterations

     negative rho (up, down):  1.572E-03 0.000E+00


     -----------------------------------------------
     Non-local corr. energy    =       0.13617903 Ry
     -----------------------------------------------


     Forces acting on atoms (cartesian axes, Ry/au):

     atom    1 type  1   force =     0.00000000    0.00000000   -0.00001298
     atom    2 type  2   force =     0.00000000    0.00001080    0.00000913
     atom    3 type  2   force =     0.00000000   -0.00001080    0.00000913
     The non-local contrib.  to forces
     atom    1 type  1   force =     0.00000000    0.00000000    2.51683254
     atom    2 type  2   force =     0.00000000   -0.09244051   -0.06539065
     atom    3 type  2   force =     0.00000000    0.09244051   -0.06539065
     The ionic contribution  to forces
     atom    1 type  1   force =     0.00000000    0.00000000   -4.35703723
     atom    2 type  2   force =     0.00000000    3.06413735    2.17851861
     atom    3 type  2   force =     0.00000000   -3.06413735    2.17851861
     The local contribution  to forces
     atom    1 type  1   force =     0.00000000    0.00000000    1.86440027
     atom    2 type  2   force =     0.00000000   -2.97168604   -2.11311883
     atom    3 type  2   force =     0.00000000    2.97168604   -2.11311883
     The core correction contribution to forces
     atom    1 type  1   force =     0.00000000    0.00000000   -0.02420861
     atom    2 type  2   force =     0.00000000    0.00000000    0.00000000
     atom    3 type  2   force =     0.00000000    0.00000000    0.00000000
     The Hubbard contrib.    to forces
     atom    1 type  1   force =     0.00000000    0.00000000    0.00000000
     atom    2 type  2   force =     0.00000000    0.00000000    0.00000000
     atom    3 type  2   force =     0.00000000    0.00000000    0.00000000
     The SCF correction term to forces
     atom    1 type  1   force =     0.00000000    0.00000000    0.00000005
     atom    2 type  2   force =     0.00000000   -0.00000001    0.00000000
     atom    3 type  2   force =     0.00000000    0.00000001    0.00000000

     Total force =     0.000024     Total SCF correction =     0.000000
     Energy error            =      3.9E-09 Ry
     Gradient error          =      1.3E-05 Ry/Bohr

     bfgs converged in   5 scf cycles and   4 bfgs steps
     (criteria: energy <  7.3E-07 Ry, force <  3.9E-04 Ry/Bohr)

     End of BFGS Geometry Optimization

     Final energy             =     -45.0246938716 Ry

     File tmp/H2O_IR.bfgs deleted, as requested
Begin final coordinates

ATOMIC_POSITIONS (angstrom)
O               10.0000000000       10.0000000000        0.0031808792
H               10.0000000000       10.7690707148        0.5947286588
H               10.0000000000        9.2309292852        0.5947286588
End final coordinates



     Writing all to output data dir tmp/H2O_IR.save/ :
     XML data file, charge density, pseudopotentials, collected wavefunctions
 
     init_run     :     20.94s CPU     21.51s WALL (       1 calls)
     electrons    :   1801.32s CPU   1832.38s WALL (       5 calls)
     update_pot   :     16.10s CPU     16.19s WALL (       4 calls)
     forces       :     21.20s CPU     21.37s WALL (       5 calls)

     Called by init_run:
     wfcinit      :      0.05s CPU      0.10s WALL (       1 calls)
     wfcinit:atom :      0.00s CPU      0.00s WALL (       1 calls)
     wfcinit:wfcr :      0.05s CPU      0.09s WALL (       1 calls)
     potinit      :      4.73s CPU      4.94s WALL (       1 calls)
     hinit0       :      0.51s CPU      0.62s WALL (       1 calls)

     Called by electrons:
     c_bands      :     51.43s CPU     52.55s WALL (     412 calls)
     sum_band     :     75.98s CPU     76.42s WALL (     412 calls)
     v_of_rho     :   1562.43s CPU   1580.78s WALL (     413 calls)
     v_h          :     20.15s CPU     20.63s WALL (     413 calls)
     v_xc         :   1561.04s CPU   1579.04s WALL (     418 calls)
     newd         :     41.04s CPU     43.97s WALL (     413 calls)
     PAW_pot      :     19.94s CPU     21.97s WALL (     417 calls)
     mix_rho      :     40.36s CPU     40.41s WALL (     412 calls)
     vdW_kernel   :      0.71s CPU      0.71s WALL (       1 calls)

     Called by c_bands:
     init_us_2    :      0.70s CPU      0.72s WALL (     829 calls)
     cegterg      :     50.65s CPU     51.39s WALL (     412 calls)

     Called by sum_band:
     sum_band:wei :      0.00s CPU      0.01s WALL (     412 calls)
     sum_band:loo :      7.41s CPU      7.53s WALL (     412 calls)
     sum_band:buf :      0.00s CPU      0.00s WALL (     412 calls)
     sum_band:ini :      0.36s CPU      0.37s WALL (     412 calls)
     sum_band:cal :      0.40s CPU      0.40s WALL (     416 calls)
     sum_band:bec :      0.01s CPU      0.01s WALL (     416 calls)
     addusdens    :     24.58s CPU     24.79s WALL (     412 calls)
                                        0.00s GPU  (     412 calls)
     addusd:skk   :      0.25s CPU      0.26s WALL (     824 calls)
                                        0.00s GPU  (     824 calls)

     Called by *egterg:
     cdiaghg      :      0.47s CPU      0.51s WALL (    1900 calls)
     cegterg:over :      0.96s CPU      0.99s WALL (    1496 calls)
     cegterg:upda :      0.11s CPU      0.12s WALL (    1496 calls)
     cegterg:last :      0.20s CPU      0.21s WALL (    1289 calls)
     h_psi        :     48.10s CPU     48.73s WALL (    1909 calls)
     s_psi        :      0.15s CPU      0.16s WALL (    1909 calls)
     g_psi        :      0.04s CPU      0.05s WALL (    1496 calls)

     Called by h_psi:
     h_psi:calbec :      1.08s CPU      1.10s WALL (    1909 calls)
     vloc_psi     :     46.79s CPU     47.37s WALL (    1909 calls)
     add_vuspsi   :      0.16s CPU      0.17s WALL (    1909 calls)

     General routines
     calbec       :      1.47s CPU      1.50s WALL (    2345 calls)
     fft          :   1073.59s CPU   1077.72s WALL (   26322 calls)
     ffts         :      5.40s CPU      5.49s WALL (     825 calls)
     fftw         :     47.36s CPU     47.92s WALL (   13830 calls)
     interpolate  :     19.82s CPU     19.92s WALL (     413 calls)
 
     Parallel routines

     PAW routines
     PAW_pot      :     19.94s CPU     21.97s WALL (     417 calls)
     PAW_symme    :      0.18s CPU      0.19s WALL (     829 calls)
 
     PWSCF        :  31m 3.39s CPU  31m37.11s WALL

 
   This run was terminated on:  13:37:22  16Oct2025            

=------------------------------------------------------------------------------=
   JOB DONE.
=------------------------------------------------------------------------------=
