
     Program PWSCF v.6.1 starts on  9Feb2026 at 15: 6:59 

     This program is part of the open-source Quantum ESPRESSO suite
     for quantum simulation of materials; please cite
         "P. Giannozzi et al., J. Phys.:Condens. Matter 21 395502 (2009);
          URL http://www.quantum-espresso.org", 
     in publications or presentations arising from this work. More details at
     http://www.quantum-espresso.org/quote

     Parallel version (MPI & OpenMP), running on     192 processor cores
     Number of MPI processes:                96
     Threads/MPI process:                     2
     R & G space division:  proc/nbgrp/npool/nimage =      96
     Reading input from espresso.pwi
Warning: card &IONS ignored
Warning: card    ION_DYNAMICS     = 'BFGS' ignored
Warning: card / ignored
Warning: card &CELL ignored
Warning: card / ignored
Warning: card &FCP ignored
Warning: card / ignored
Warning: card &RISM ignored
Warning: card / ignored

     Current dimensions of program PWSCF are:
     Max number of different atomic species (ntypx) = 10
     Max number of k-points (npk) =  40000
     Max angular momentum in pseudopotentials (lmaxx) =  3

     IMPORTANT: XC functional enforced from input :
     Exchange-correlation      = VDW-DF2 ( 1  4 13  0 2 0)
     Any further DFT definition will be discarded
     Please, verify this is what you really want

               file O.pbe-n-kjpaw_psl.1.0.0.UPF: wavefunction(s)  2S 2P renormalized
               file H.pbe-kjpaw_psl.1.0.0.UPF: wavefunction(s)  1S renormalized

     Subspace diagonalization in iterative solution of the eigenvalue problem:
     one sub-group per band group will be used
     ELPA distributed-memory algorithm (size of sub-group:  6*  6 procs)

 
     Parallelization info
     --------------------
     sticks:   dense  smooth     PW     G-vecs:    dense   smooth      PW
     Min         740     296     74               148294    37508    4688
     Max         741     297     76               148300    37516    4690
     Sum       71041   28417   7129             14236565  3601159  450127
 


     bravais-lattice index     =            0
     lattice parameter (alat)  =      37.7945  a.u.
     unit-cell volume          =   53986.6738 (a.u.)^3
     number of atoms/cell      =            3
     number of atomic types    =            2
     number of electrons       =         8.00
     number of Kohn-Sham states=           40
     kinetic-energy cutoff     =      62.4738  Ry
     charge density cutoff     =     624.7385  Ry
     convergence threshold     =      7.3E-12
     mixing beta               =       0.3333
     number of iterations used =           12  plain     mixing
     Exchange-correlation      = VDW-DF2 ( 1  4 13  0 2 0)

     Effective Screening Medium Method
     =================================
     Boundary Conditions: Vacuum-Slab-Vacuum
     total charge in unit cell        =   0.0000
     grid points for fit at edges     =        4 
 

     celldm(1)=  37.794522  celldm(2)=   0.000000  celldm(3)=   0.000000
     celldm(4)=   0.000000  celldm(5)=   0.000000  celldm(6)=   0.000000

     crystal axes: (cart. coord. in units of alat)
               a(1) = (   1.000000   0.000000   0.000000 )  
               a(2) = (   0.000000   1.000000   0.000000 )  
               a(3) = (   0.000000   0.000000   1.000000 )  

     reciprocal axes: (cart. coord. in units 2 pi/alat)
               b(1) = (  1.000000  0.000000  0.000000 )  
               b(2) = (  0.000000  1.000000  0.000000 )  
               b(3) = (  0.000000  0.000000  1.000000 )  


     PseudoPot. # 1 for  O read from file:
     /work/gf93/f93007/QE/pseudo/O.pbe-n-kjpaw_psl.1.0.0.UPF
     MD5 check sum: c61d840054b6bba219e553541e327118
     Pseudo is Projector augmented-wave + core cor, Zval =  6.0
     Generated using "atomic" code by A. Dal Corso  v.6.1 svn rev. 13369
     Shape of augmentation charge: PSQ
     Using radial grid of 1095 points,  4 beta functions with: 
                l(1) =   0
                l(2) =   0
                l(3) =   1
                l(4) =   1
     Q(r) pseudized with 0 coefficients 


     PseudoPot. # 2 for  H read from file:
     /work/gf93/f93007/QE/pseudo/H.pbe-kjpaw_psl.1.0.0.UPF
     MD5 check sum: 29603ce6b94be0cf73e39cbb1f958d8e
     Pseudo is Projector augmented-wave, Zval =  1.0
     Generated using "atomic" code by A. Dal Corso  v.6.1 svn rev. 13369
     Shape of augmentation charge: PSQ
     Using radial grid of  929 points,  2 beta functions with: 
                l(1) =   0
                l(2) =   0
     Q(r) pseudized with 0 coefficients 


     vdW kernel table read from file vdW_kernel_table
     MD5 check sum: 6d69797d2e858e93e031fb7d16d30e50

     atomic species   valence    mass     pseudopotential
        O              6.00    15.99900      O( 1.00)
        H              1.00     1.00800      H( 1.00)

      2 Sym. Ops. (no inversion) found


                                    s                        frac. trans.

      isym =  1     identity                                     

 cryst.   s( 1) = (     1          0          0      )
                  (     0          1          0      )
                  (     0          0          1      )

 cart.    s( 1) = (  1.0000000  0.0000000  0.0000000 )
                  (  0.0000000  1.0000000  0.0000000 )
                  (  0.0000000  0.0000000  1.0000000 )


      isym =  2     inv. 180 deg rotation - cart. axis [1,0,0]   

 cryst.   s( 2) = (    -1          0          0      )
                  (     0          1          0      )
                  (     0          0          1      )

 cart.    s( 2) = ( -1.0000000  0.0000000  0.0000000 )
                  (  0.0000000  1.0000000  0.0000000 )
                  (  0.0000000  0.0000000  1.0000000 )


   Cartesian axes

     site n.     atom                  positions (alat units)
         1           O   tau(   1) = (   0.5000000   0.5000000   0.0001590  )
         2           H   tau(   2) = (   0.5000000   0.5384535   0.0297364  )
         3           H   tau(   3) = (   0.5000000   0.4615465   0.0302364  )

   Crystallographic axes

     site n.     atom                  positions (cryst. coord.)
         1           O   tau(   1) = (  0.5000000  0.5000000  0.0001590  )
         2           H   tau(   2) = (  0.5000000  0.5384535  0.0297364  )
         3           H   tau(   3) = (  0.5000000  0.4615465  0.0302364  )

     number of k points=     1
                       cart. coord. in units 2pi/alat
        k(    1) = (   0.0000000   0.0000000   0.0000000), wk =   2.0000000

                       cryst. coord.
        k(    1) = (   0.0000000   0.0000000   0.0000000), wk =   2.0000000

     Dense  grid: 14236565 G-vectors     FFT dimensions: ( 320, 320, 320)

     Smooth grid:  3601159 G-vectors     FFT dimensions: ( 192, 192, 192)

     Estimated max dynamical RAM per process >     488.77MB

     Estimated total allocated dynamical RAM >   46922.27MB

     Initial potential from superposition of free atoms
     Check: negative starting charge=   -0.001152

     starting charge    7.99998, renormalised to    8.00000

     negative rho (up, down):  1.152E-03 0.000E+00


     %%%%%%%%%%%%%%%%%%%%%%%%%%%%%%%%%%%%%%%%%%%%%%%%%%%%%%%%%%%%%%%%%%%%%%%%
     %                                                                      %
     % You are using vdW-DF, which was implemented by the Thonhauser group. %
     % Please cite the following two papers that made this development      %
     % possible and the two reviews that describe the various versions:     %
     %                                                                      %
     %   T. Thonhauser et al., PRL 115, 136402 (2015).                      %
     %   T. Thonhauser et al., PRB 76, 125112 (2007).                       %
     %   K. Berland et al., Rep. Prog. Phys. 78, 066501 (2015).             %
     %   D.C. Langreth et al., J. Phys.: Condens. Matter 21, 084203 (2009). %
     %                                                                      %
     %                                                                      %
     % If you are calculating the stress with vdW-DF, please also cite:     %
     %                                                                      %
     %   R. Sabatini et al., J. Phys.: Condens. Matter 24, 424209 (2012).   %
     %                                                                      %
     %%%%%%%%%%%%%%%%%%%%%%%%%%%%%%%%%%%%%%%%%%%%%%%%%%%%%%%%%%%%%%%%%%%%%%%%


     Carrying out vdW-DF run using the following parameters:
     Nqs    =  20  Npoints =  1024  r_max =  100.000
     q_mesh =  0.00001000  0.04494208  0.09755937  0.15916263
               0.23128650  0.31572767  0.41458969  0.53033537
               0.66584808  0.82450364  1.01025438  1.22772762
               1.48234092  1.78043706  2.12944203  2.53805004
               3.01644009  3.57652955  4.23227104  5.00000000


     -----------------------------------------------
     Non-local corr. energy    =       0.13357538 Ry
     -----------------------------------------------

     Starting wfc are    6 randomized atomic wfcs +   34 random wfc
     Checking if some PAW data can be deallocated... 
       node    0, deallocated PAW data for type:  2
       node    1, deallocated PAW data for type:  2
       node    2, deallocated PAW data for type:  2
       node    3, deallocated PAW data for type:  2
       node    4, deallocated PAW data for type:  2
       node    5, deallocated PAW data for type:  2
       node    6, deallocated PAW data for type:  2
       node    7, deallocated PAW data for type:  2
       node    8, deallocated PAW data for type:  2
       node    9, deallocated PAW data for type:  2
       node   10, deallocated PAW data for type:  2
       node   11, deallocated PAW data for type:  2
       node   12, deallocated PAW data for type:  2
       node   13, deallocated PAW data for type:  2
       node   14, deallocated PAW data for type:  2
       node   15, deallocated PAW data for type:  2
       node   16, deallocated PAW data for type:  2
       node   17, deallocated PAW data for type:  2
       node   18, deallocated PAW data for type:  2
       node   19, deallocated PAW data for type:  2
       node   20, deallocated PAW data for type:  2
       node   21, deallocated PAW data for type:  2
       node   22, deallocated PAW data for type:  2
       node   23, deallocated PAW data for type:  2
       node   24, deallocated PAW data for type:  2
       node   25, deallocated PAW data for type:  2
       node   26, deallocated PAW data for type:  2
       node   27, deallocated PAW data for type:  2
       node   28, deallocated PAW data for type:  2
       node   29, deallocated PAW data for type:  2
       node   30, deallocated PAW data for type:  2
       node   31, deallocated PAW data for type:  2
       node   32, deallocated PAW data for type:  1
       node   33, deallocated PAW data for type:  1
       node   34, deallocated PAW data for type:  1
       node   35, deallocated PAW data for type:  1
       node   36, deallocated PAW data for type:  1
       node   37, deallocated PAW data for type:  1
       node   38, deallocated PAW data for type:  1
       node   39, deallocated PAW data for type:  1
       node   40, deallocated PAW data for type:  1
       node   41, deallocated PAW data for type:  1
       node   42, deallocated PAW data for type:  1
       node   43, deallocated PAW data for type:  1
       node   44, deallocated PAW data for type:  1
       node   45, deallocated PAW data for type:  1
       node   46, deallocated PAW data for type:  1
       node   47, deallocated PAW data for type:  1
       node   48, deallocated PAW data for type:  1
       node   49, deallocated PAW data for type:  1
       node   50, deallocated PAW data for type:  1
       node   51, deallocated PAW data for type:  1
       node   52, deallocated PAW data for type:  1
       node   53, deallocated PAW data for type:  1
       node   54, deallocated PAW data for type:  1
       node   55, deallocated PAW data for type:  1
       node   56, deallocated PAW data for type:  1
       node   57, deallocated PAW data for type:  1
       node   58, deallocated PAW data for type:  1
       node   59, deallocated PAW data for type:  1
       node   60, deallocated PAW data for type:  1
       node   61, deallocated PAW data for type:  1
       node   62, deallocated PAW data for type:  1
       node   63, deallocated PAW data for type:  1
       node   64, deallocated PAW data for type:  1
       node   65, deallocated PAW data for type:  1
       node   66, deallocated PAW data for type:  1
       node   67, deallocated PAW data for type:  1
       node   68, deallocated PAW data for type:  1
       node   69, deallocated PAW data for type:  1
       node   70, deallocated PAW data for type:  1
       node   71, deallocated PAW data for type:  1
       node   72, deallocated PAW data for type:  1
       node   73, deallocated PAW data for type:  1
       node   74, deallocated PAW data for type:  1
       node   75, deallocated PAW data for type:  1
       node   76, deallocated PAW data for type:  1
       node   77, deallocated PAW data for type:  1
       node   78, deallocated PAW data for type:  1
       node   79, deallocated PAW data for type:  1
       node   80, deallocated PAW data for type:  1
       node   81, deallocated PAW data for type:  1
       node   82, deallocated PAW data for type:  1
       node   83, deallocated PAW data for type:  1
       node   84, deallocated PAW data for type:  1
       node   85, deallocated PAW data for type:  1
       node   86, deallocated PAW data for type:  1
       node   87, deallocated PAW data for type:  1
       node   88, deallocated PAW data for type:  1
       node   89, deallocated PAW data for type:  1
       node   90, deallocated PAW data for type:  1
       node   91, deallocated PAW data for type:  1
       node   92, deallocated PAW data for type:  1
       node   93, deallocated PAW data for type:  1
       node   94, deallocated PAW data for type:  1
       node   95, deallocated PAW data for type:  1

     total cpu time spent up to now is       25.6 secs

     per-process dynamical memory:   235.5 Mb

     Self-consistent Calculation

     iteration #  1     ecut=    62.47 Ry     beta=0.33
     Davidson diagonalization with overlap
     ethr =  1.00E-02,  avg # of iterations = 12.0

     negative rho (up, down):  1.365E-03 0.000E+00


     -----------------------------------------------
     Non-local corr. energy    =       0.13509075 Ry
     -----------------------------------------------


     total cpu time spent up to now is       35.1 secs

     total energy              =     -44.94334755 Ry
     Harris-Foulkes estimate   =     -45.19637799 Ry
     estimated scf accuracy    <       0.53718985 Ry

     iteration #  2     ecut=    62.47 Ry     beta=0.33
     Davidson diagonalization with overlap
     ethr =  6.71E-03,  avg # of iterations =  1.0

     negative rho (up, down):  9.004E-04 0.000E+00


     -----------------------------------------------
     Non-local corr. energy    =       0.13564710 Ry
     -----------------------------------------------


     total cpu time spent up to now is       41.8 secs

     total energy              =     -44.98717875 Ry
     Harris-Foulkes estimate   =     -45.00598060 Ry
     estimated scf accuracy    <       0.04687849 Ry

     iteration #  3     ecut=    62.47 Ry     beta=0.33
     Davidson diagonalization with overlap
     ethr =  5.86E-04,  avg # of iterations =  6.0

     negative rho (up, down):  1.512E-03 0.000E+00


     -----------------------------------------------
     Non-local corr. energy    =       0.13504222 Ry
     -----------------------------------------------


     total cpu time spent up to now is       49.6 secs

     total energy              =     -45.00690138 Ry
     Harris-Foulkes estimate   =     -45.03659538 Ry
     estimated scf accuracy    <       0.04563511 Ry

     iteration #  4     ecut=    62.47 Ry     beta=0.33
     Davidson diagonalization with overlap
     ethr =  5.70E-04,  avg # of iterations =  3.0

     negative rho (up, down):  1.557E-03 0.000E+00


     -----------------------------------------------
     Non-local corr. energy    =       0.13632622 Ry
     -----------------------------------------------


     total cpu time spent up to now is       56.5 secs

     total energy              =     -45.01027269 Ry
     Harris-Foulkes estimate   =     -45.04379904 Ry
     estimated scf accuracy    <       0.06588494 Ry

     iteration #  5     ecut=    62.47 Ry     beta=0.33
     Davidson diagonalization with overlap
     ethr =  5.70E-04,  avg # of iterations =  1.0

     negative rho (up, down):  1.493E-03 0.000E+00


     -----------------------------------------------
     Non-local corr. energy    =       0.13628883 Ry
     -----------------------------------------------


     total cpu time spent up to now is       63.2 secs

     total energy              =     -45.01772547 Ry
     Harris-Foulkes estimate   =     -45.01805709 Ry
     estimated scf accuracy    <       0.00401020 Ry

     iteration #  6     ecut=    62.47 Ry     beta=0.33
     Davidson diagonalization with overlap
     ethr =  5.01E-05,  avg # of iterations = 13.0

     negative rho (up, down):  1.494E-03 0.000E+00


     -----------------------------------------------
     Non-local corr. energy    =       0.13622961 Ry
     -----------------------------------------------


     total cpu time spent up to now is       71.8 secs

     total energy              =     -45.02468909 Ry
     Harris-Foulkes estimate   =     -45.02500118 Ry
     estimated scf accuracy    <       0.00137757 Ry

     iteration #  7     ecut=    62.47 Ry     beta=0.33
     Davidson diagonalization with overlap
     ethr =  1.72E-05,  avg # of iterations =  4.0

     negative rho (up, down):  1.564E-03 0.000E+00


     -----------------------------------------------
     Non-local corr. energy    =       0.13615193 Ry
     -----------------------------------------------


     total cpu time spent up to now is       78.8 secs

     total energy              =     -45.02437231 Ry
     Harris-Foulkes estimate   =     -45.02471621 Ry
     estimated scf accuracy    <       0.00069531 Ry

     iteration #  8     ecut=    62.47 Ry     beta=0.33
     Davidson diagonalization with overlap
     ethr =  8.69E-06,  avg # of iterations =  3.0

     negative rho (up, down):  1.573E-03 0.000E+00


     -----------------------------------------------
     Non-local corr. energy    =       0.13614782 Ry
     -----------------------------------------------


     total cpu time spent up to now is       85.6 secs

     total energy              =     -45.02463903 Ry
     Harris-Foulkes estimate   =     -45.02464206 Ry
     estimated scf accuracy    <       0.00007136 Ry

     iteration #  9     ecut=    62.47 Ry     beta=0.33
     Davidson diagonalization with overlap
     ethr =  8.92E-07,  avg # of iterations =  7.0

     negative rho (up, down):  1.586E-03 0.000E+00


     -----------------------------------------------
     Non-local corr. energy    =       0.13614790 Ry
     -----------------------------------------------


     total cpu time spent up to now is       93.1 secs

     total energy              =     -45.02463504 Ry
     Harris-Foulkes estimate   =     -45.02463962 Ry
     estimated scf accuracy    <       0.00006294 Ry

     iteration # 10     ecut=    62.47 Ry     beta=0.33
     Davidson diagonalization with overlap
     ethr =  7.87E-07,  avg # of iterations =  1.0

     negative rho (up, down):  1.592E-03 0.000E+00


     -----------------------------------------------
     Non-local corr. energy    =       0.13615337 Ry
     -----------------------------------------------


     total cpu time spent up to now is       99.8 secs

     total energy              =     -45.02462484 Ry
     Harris-Foulkes estimate   =     -45.02463524 Ry
     estimated scf accuracy    <       0.00005052 Ry

     iteration # 11     ecut=    62.47 Ry     beta=0.33
     Davidson diagonalization with overlap
     ethr =  6.32E-07,  avg # of iterations =  1.0

     negative rho (up, down):  1.592E-03 0.000E+00


     -----------------------------------------------
     Non-local corr. energy    =       0.13615363 Ry
     -----------------------------------------------


     total cpu time spent up to now is      106.5 secs

     total energy              =     -45.02462554 Ry
     Harris-Foulkes estimate   =     -45.02462600 Ry
     estimated scf accuracy    <       0.00002370 Ry

     iteration # 12     ecut=    62.47 Ry     beta=0.33
     Davidson diagonalization with overlap
     ethr =  2.96E-07,  avg # of iterations =  1.0

     negative rho (up, down):  1.592E-03 0.000E+00


     -----------------------------------------------
     Non-local corr. energy    =       0.13615352 Ry
     -----------------------------------------------


     total cpu time spent up to now is      113.1 secs

     total energy              =     -45.02462563 Ry
     Harris-Foulkes estimate   =     -45.02462587 Ry
     estimated scf accuracy    <       0.00002217 Ry

     iteration # 13     ecut=    62.47 Ry     beta=0.33
     Davidson diagonalization with overlap
     ethr =  2.77E-07,  avg # of iterations =  1.0

     negative rho (up, down):  1.592E-03 0.000E+00


     -----------------------------------------------
     Non-local corr. energy    =       0.13615355 Ry
     -----------------------------------------------


     total cpu time spent up to now is      119.8 secs

     total energy              =     -45.02462582 Ry
     Harris-Foulkes estimate   =     -45.02462585 Ry
     estimated scf accuracy    <       0.00001900 Ry

     iteration # 14     ecut=    62.47 Ry     beta=0.33
     Davidson diagonalization with overlap
     ethr =  2.38E-07,  avg # of iterations =  1.0

     negative rho (up, down):  1.593E-03 0.000E+00


     -----------------------------------------------
     Non-local corr. energy    =       0.13615384 Ry
     -----------------------------------------------


     total cpu time spent up to now is      126.5 secs

     total energy              =     -45.02462581 Ry
     Harris-Foulkes estimate   =     -45.02462601 Ry
     estimated scf accuracy    <       0.00001849 Ry

     iteration # 15     ecut=    62.47 Ry     beta=0.33
     Davidson diagonalization with overlap
     ethr =  2.31E-07,  avg # of iterations =  1.0

     negative rho (up, down):  1.593E-03 0.000E+00


     -----------------------------------------------
     Non-local corr. energy    =       0.13615397 Ry
     -----------------------------------------------


     total cpu time spent up to now is      133.1 secs

     total energy              =     -45.02462546 Ry
     Harris-Foulkes estimate   =     -45.02462595 Ry
     estimated scf accuracy    <       0.00001636 Ry

     iteration # 16     ecut=    62.47 Ry     beta=0.33
     Davidson diagonalization with overlap
     ethr =  2.05E-07,  avg # of iterations =  1.0

     negative rho (up, down):  1.590E-03 0.000E+00


     -----------------------------------------------
     Non-local corr. energy    =       0.13615497 Ry
     -----------------------------------------------


     total cpu time spent up to now is      139.8 secs

     total energy              =     -45.02462525 Ry
     Harris-Foulkes estimate   =     -45.02462563 Ry
     estimated scf accuracy    <       0.00001474 Ry

     iteration # 17     ecut=    62.47 Ry     beta=0.33
     Davidson diagonalization with overlap
     ethr =  1.84E-07,  avg # of iterations =  1.0

     negative rho (up, down):  1.589E-03 0.000E+00


     -----------------------------------------------
     Non-local corr. energy    =       0.13615527 Ry
     -----------------------------------------------


     total cpu time spent up to now is      146.5 secs

     total energy              =     -45.02462401 Ry
     Harris-Foulkes estimate   =     -45.02462538 Ry
     estimated scf accuracy    <       0.00001265 Ry

     iteration # 18     ecut=    62.47 Ry     beta=0.33
     Davidson diagonalization with overlap
     ethr =  1.58E-07,  avg # of iterations =  2.0

     negative rho (up, down):  1.582E-03 0.000E+00


     -----------------------------------------------
     Non-local corr. energy    =       0.13615517 Ry
     -----------------------------------------------


     total cpu time spent up to now is      153.2 secs

     total energy              =     -45.02462420 Ry
     Harris-Foulkes estimate   =     -45.02462474 Ry
     estimated scf accuracy    <       0.00000588 Ry

     iteration # 19     ecut=    62.47 Ry     beta=0.33
     Davidson diagonalization with overlap
     ethr =  7.35E-08,  avg # of iterations =  1.0

     negative rho (up, down):  1.578E-03 0.000E+00


     -----------------------------------------------
     Non-local corr. energy    =       0.13615376 Ry
     -----------------------------------------------


     total cpu time spent up to now is      159.8 secs

     total energy              =     -45.02462370 Ry
     Harris-Foulkes estimate   =     -45.02462437 Ry
     estimated scf accuracy    <       0.00000322 Ry

     iteration # 20     ecut=    62.47 Ry     beta=0.33
     Davidson diagonalization with overlap
     ethr =  4.02E-08,  avg # of iterations =  2.0

     negative rho (up, down):  1.576E-03 0.000E+00


     -----------------------------------------------
     Non-local corr. energy    =       0.13615368 Ry
     -----------------------------------------------


     total cpu time spent up to now is      166.6 secs

     total energy              =     -45.02462435 Ry
     Harris-Foulkes estimate   =     -45.02462438 Ry
     estimated scf accuracy    <       0.00000042 Ry

     iteration # 21     ecut=    62.47 Ry     beta=0.33
     Davidson diagonalization with overlap
     ethr =  5.24E-09,  avg # of iterations =  3.0

     negative rho (up, down):  1.573E-03 0.000E+00


     -----------------------------------------------
     Non-local corr. energy    =       0.13615509 Ry
     -----------------------------------------------


     total cpu time spent up to now is      173.4 secs

     total energy              =     -45.02462479 Ry
     Harris-Foulkes estimate   =     -45.02462450 Ry
     estimated scf accuracy    <       0.00000018 Ry

     iteration # 22     ecut=    62.47 Ry     beta=0.33
     Davidson diagonalization with overlap
     ethr =  2.22E-09,  avg # of iterations =  3.0

     negative rho (up, down):  1.573E-03 0.000E+00


     -----------------------------------------------
     Non-local corr. energy    =       0.13615501 Ry
     -----------------------------------------------


     total cpu time spent up to now is      180.3 secs

     total energy              =     -45.02462498 Ry
     Harris-Foulkes estimate   =     -45.02462500 Ry
     estimated scf accuracy    <       0.00000119 Ry

     iteration # 23     ecut=    62.47 Ry     beta=0.33
     Davidson diagonalization with overlap
     ethr =  2.22E-09,  avg # of iterations =  1.0

     negative rho (up, down):  1.571E-03 0.000E+00


     -----------------------------------------------
     Non-local corr. energy    =       0.13615512 Ry
     -----------------------------------------------


     total cpu time spent up to now is      187.0 secs

     total energy              =     -45.02462492 Ry
     Harris-Foulkes estimate   =     -45.02462499 Ry
     estimated scf accuracy    <       0.00000101 Ry

     iteration # 24     ecut=    62.47 Ry     beta=0.33
     Davidson diagonalization with overlap
     ethr =  2.22E-09,  avg # of iterations =  1.0

     negative rho (up, down):  1.572E-03 0.000E+00


     -----------------------------------------------
     Non-local corr. energy    =       0.13615564 Ry
     -----------------------------------------------


     total cpu time spent up to now is      193.7 secs

     total energy              =     -45.02462417 Ry
     Harris-Foulkes estimate   =     -45.02462493 Ry
     estimated scf accuracy    <       0.00000067 Ry

     iteration # 25     ecut=    62.47 Ry     beta=0.33
     Davidson diagonalization with overlap
     ethr =  2.22E-09,  avg # of iterations =  3.0

     negative rho (up, down):  1.573E-03 0.000E+00


     -----------------------------------------------
     Non-local corr. energy    =       0.13615592 Ry
     -----------------------------------------------


     total cpu time spent up to now is      200.6 secs

     total energy              =     -45.02462496 Ry
     Harris-Foulkes estimate   =     -45.02462456 Ry
     estimated scf accuracy    <       0.00000045 Ry

     iteration # 26     ecut=    62.47 Ry     beta=0.33
     Davidson diagonalization with overlap
     ethr =  2.22E-09,  avg # of iterations =  2.0

     negative rho (up, down):  1.571E-03 0.000E+00


     -----------------------------------------------
     Non-local corr. energy    =       0.13615602 Ry
     -----------------------------------------------


     total cpu time spent up to now is      207.3 secs

     total energy              =     -45.02462460 Ry
     Harris-Foulkes estimate   =     -45.02462499 Ry
     estimated scf accuracy    <       0.00000098 Ry

     iteration # 27     ecut=    62.47 Ry     beta=0.33
     Davidson diagonalization with overlap
     ethr =  2.22E-09,  avg # of iterations =  3.0

     negative rho (up, down):  1.568E-03 0.000E+00


     -----------------------------------------------
     Non-local corr. energy    =       0.13615586 Ry
     -----------------------------------------------


     total cpu time spent up to now is      214.2 secs

     total energy              =     -45.02462471 Ry
     Harris-Foulkes estimate   =     -45.02462469 Ry
     estimated scf accuracy    <       0.00000009 Ry

     iteration # 28     ecut=    62.47 Ry     beta=0.33
     Davidson diagonalization with overlap
     ethr =  1.12E-09,  avg # of iterations =  1.0

     negative rho (up, down):  1.567E-03 0.000E+00


     -----------------------------------------------
     Non-local corr. energy    =       0.13615603 Ry
     -----------------------------------------------


     total cpu time spent up to now is      220.8 secs

     total energy              =     -45.02462466 Ry
     Harris-Foulkes estimate   =     -45.02462471 Ry
     estimated scf accuracy    <       0.00000004 Ry

     iteration # 29     ecut=    62.47 Ry     beta=0.33
     Davidson diagonalization with overlap
     ethr =  4.88E-10,  avg # of iterations =  1.0

     negative rho (up, down):  1.566E-03 0.000E+00


     -----------------------------------------------
     Non-local corr. energy    =       0.13615629 Ry
     -----------------------------------------------


     total cpu time spent up to now is      227.5 secs

     total energy              =     -45.02462466 Ry
     Harris-Foulkes estimate   =     -45.02462467 Ry
     estimated scf accuracy    <       0.00000001 Ry

     iteration # 30     ecut=    62.47 Ry     beta=0.33
     Davidson diagonalization with overlap
     ethr =  1.52E-10,  avg # of iterations =  3.0

     negative rho (up, down):  1.567E-03 0.000E+00


     -----------------------------------------------
     Non-local corr. energy    =       0.13615602 Ry
     -----------------------------------------------


     total cpu time spent up to now is      234.3 secs

     total energy              =     -45.02462467 Ry
     Harris-Foulkes estimate   =     -45.02462467 Ry
     estimated scf accuracy    <       0.00000002 Ry

     iteration # 31     ecut=    62.47 Ry     beta=0.33
     Davidson diagonalization with overlap
     ethr =  1.52E-10,  avg # of iterations =  1.0

     negative rho (up, down):  1.569E-03 0.000E+00


     -----------------------------------------------
     Non-local corr. energy    =       0.13615587 Ry
     -----------------------------------------------


     total cpu time spent up to now is      240.9 secs

     total energy              =     -45.02462468 Ry
     Harris-Foulkes estimate   =     -45.02462467 Ry
     estimated scf accuracy    <          8.5E-09 Ry

     iteration # 32     ecut=    62.47 Ry     beta=0.33
     Davidson diagonalization with overlap
     ethr =  1.07E-10,  avg # of iterations =  1.0

     negative rho (up, down):  1.570E-03 0.000E+00


     -----------------------------------------------
     Non-local corr. energy    =       0.13615588 Ry
     -----------------------------------------------


     total cpu time spent up to now is      247.6 secs

     total energy              =     -45.02462466 Ry
     Harris-Foulkes estimate   =     -45.02462468 Ry
     estimated scf accuracy    <          1.6E-09 Ry

     iteration # 33     ecut=    62.47 Ry     beta=0.33
     Davidson diagonalization with overlap
     ethr =  1.96E-11,  avg # of iterations =  3.0

     negative rho (up, down):  1.569E-03 0.000E+00


     -----------------------------------------------
     Non-local corr. energy    =       0.13615592 Ry
     -----------------------------------------------


     total cpu time spent up to now is      254.5 secs

     total energy              =     -45.02462468 Ry
     Harris-Foulkes estimate   =     -45.02462467 Ry
     estimated scf accuracy    <          4.6E-09 Ry

     iteration # 34     ecut=    62.47 Ry     beta=0.33
     Davidson diagonalization with overlap
     ethr =  1.96E-11,  avg # of iterations =  1.0

     negative rho (up, down):  1.569E-03 0.000E+00


     -----------------------------------------------
     Non-local corr. energy    =       0.13615587 Ry
     -----------------------------------------------


     total cpu time spent up to now is      261.1 secs

     total energy              =     -45.02462469 Ry
     Harris-Foulkes estimate   =     -45.02462468 Ry
     estimated scf accuracy    <          2.2E-09 Ry

     iteration # 35     ecut=    62.47 Ry     beta=0.33
     Davidson diagonalization with overlap
     ethr =  1.96E-11,  avg # of iterations =  3.0

     negative rho (up, down):  1.569E-03 0.000E+00


     -----------------------------------------------
     Non-local corr. energy    =       0.13615591 Ry
     -----------------------------------------------


     total cpu time spent up to now is      268.0 secs

     total energy              =     -45.02462469 Ry
     Harris-Foulkes estimate   =     -45.02462469 Ry
     estimated scf accuracy    <          1.8E-10 Ry

     iteration # 36     ecut=    62.47 Ry     beta=0.33
     Davidson diagonalization with overlap
     ethr =  2.22E-12,  avg # of iterations =  1.0

     negative rho (up, down):  1.569E-03 0.000E+00


     -----------------------------------------------
     Non-local corr. energy    =       0.13615591 Ry
     -----------------------------------------------


     total cpu time spent up to now is      274.6 secs

     total energy              =     -45.02462469 Ry
     Harris-Foulkes estimate   =     -45.02462469 Ry
     estimated scf accuracy    <          3.7E-11 Ry

     iteration # 37     ecut=    62.47 Ry     beta=0.33
     Davidson diagonalization with overlap
     ethr =  4.60E-13,  avg # of iterations =  1.0

     negative rho (up, down):  1.569E-03 0.000E+00


     -----------------------------------------------
     Non-local corr. energy    =       0.13615591 Ry
     -----------------------------------------------


     total cpu time spent up to now is      281.2 secs

     total energy              =     -45.02462469 Ry
     Harris-Foulkes estimate   =     -45.02462469 Ry
     estimated scf accuracy    <          6.9E-11 Ry

     iteration # 38     ecut=    62.47 Ry     beta=0.33
     Davidson diagonalization with overlap
     ethr =  4.60E-13,  avg # of iterations =  1.0

     negative rho (up, down):  1.569E-03 0.000E+00


     -----------------------------------------------
     Non-local corr. energy    =       0.13615591 Ry
     -----------------------------------------------


     total cpu time spent up to now is      287.9 secs

     total energy              =     -45.02462469 Ry
     Harris-Foulkes estimate   =     -45.02462469 Ry
     estimated scf accuracy    <          4.1E-11 Ry

     iteration # 39     ecut=    62.47 Ry     beta=0.33
     Davidson diagonalization with overlap
     ethr =  4.60E-13,  avg # of iterations =  2.0

     negative rho (up, down):  1.569E-03 0.000E+00


     -----------------------------------------------
     Non-local corr. energy    =       0.13615591 Ry
     -----------------------------------------------


     total cpu time spent up to now is      294.6 secs

     total energy              =     -45.02462469 Ry
     Harris-Foulkes estimate   =     -45.02462469 Ry
     estimated scf accuracy    <          8.6E-12 Ry

     iteration # 40     ecut=    62.47 Ry     beta=0.33
     Davidson diagonalization with overlap
     ethr =  1.07E-13,  avg # of iterations =  3.0

     negative rho (up, down):  1.569E-03 0.000E+00


     -----------------------------------------------
     Non-local corr. energy    =       0.13615593 Ry
     -----------------------------------------------


     total cpu time spent up to now is      301.4 secs

     End of self-consistent calculation

          k = 0.0000 0.0000 0.0000 (450127 PWs)   bands (ev):

   -25.5965 -13.4969  -9.7112  -7.6530  -1.4829  -0.1536  -0.0087   0.1331
     0.1427   0.1858   0.2115   0.3019   0.3124   0.4474   0.4673   0.5454
     0.5465   0.5495   0.5598   0.5768   0.5873   0.5882   0.5885   0.7541
     0.7772   0.8640   0.8801   0.9202   0.9279   0.9422   0.9553   1.0750
     1.1125   1.2056   1.2246   1.2631   1.2927   1.3836   1.4169   1.4993

     occupation numbers 
     1.0000   1.0000   1.0000   1.0000   0.0000   0.0000   0.0000   0.0000
     0.0000   0.0000   0.0000   0.0000   0.0000   0.0000   0.0000   0.0000
     0.0000   0.0000   0.0000   0.0000   0.0000   0.0000   0.0000   0.0000
     0.0000   0.0000   0.0000   0.0000   0.0000   0.0000   0.0000   0.0000
     0.0000   0.0000   0.0000   0.0000   0.0000   0.0000   0.0000   0.0000

     highest occupied, lowest unoccupied level (ev):    -7.6530   -1.4829

!    total energy              =     -45.02462469 Ry
     Harris-Foulkes estimate   =     -45.02462469 Ry
     estimated scf accuracy    <          6.1E-12 Ry

     total all-electron energy =      -153.871507 Ry

     The total energy is the sum of the following terms:

     one-electron contribution =     -68.79047958 Ry
     hartree contribution      =      36.08268691 Ry
     xc contribution           =      -9.22319520 Ry
     ewald contribution        =       7.13225254 Ry
     one-center paw contrib.   =     -10.22588936 Ry
      -> PAW hartree energy AE =      27.83070093 Ry
      -> PAW hartree energy PS =     -27.79604351 Ry
      -> PAW xc energy AE      =     -17.89390950 Ry
      -> PAW xc energy PS      =       7.63460610 Ry
      -> total E_H with PAW    =      36.11734433 Ry
      -> total E_XC with PAW   =     -19.48249860 Ry

     convergence has been achieved in  40 iterations

     negative rho (up, down):  1.569E-03 0.000E+00


     -----------------------------------------------
     Non-local corr. energy    =       0.13615593 Ry
     -----------------------------------------------


     Forces acting on atoms (cartesian axes, Ry/au):

     atom    1 type  1   force =     0.00000000   -0.00888185    0.00774438
     atom    2 type  2   force =     0.00000000    0.00113288   -0.00040430
     atom    3 type  2   force =     0.00000000    0.00774897   -0.00733642
     The non-local contrib.  to forces
     atom    1 type  1   force =     0.00000000    0.01456110    2.52126715
     atom    2 type  2   force =     0.00000000   -0.09236355   -0.06546656
     atom    3 type  2   force =     0.00000000    0.08985299   -0.06468950
     The ionic contribution  to forces
     atom    1 type  1   force =     0.00000000   -0.05294784   -4.35245001
     atom    2 type  2   force =     0.00000000    3.06412232    2.17697330
     atom    3 type  2   force =     0.00000000   -3.01117448    2.17547670
     The local contribution  to forces
     atom    1 type  1   force =    -0.00001460    0.02960870    1.86321695
     atom    2 type  2   force =    -0.00000128   -2.97062654   -2.11191156
     atom    3 type  2   force =    -0.00000127    2.92907093   -2.11812417
     The core correction contribution to forces
     atom    1 type  1   force =     0.00000014   -0.00010410   -0.02429080
     atom    2 type  2   force =     0.00000000    0.00000000    0.00000000
     atom    3 type  2   force =     0.00000000    0.00000000    0.00000000
     The Hubbard contrib.    to forces
     atom    1 type  1   force =     0.00000000    0.00000000    0.00000000
     atom    2 type  2   force =     0.00000000    0.00000000    0.00000000
     atom    3 type  2   force =     0.00000000    0.00000000    0.00000000
     The SCF correction term to forces
     atom    1 type  1   force =     0.00000000    0.00000020    0.00000108
     atom    2 type  2   force =     0.00000000    0.00000056    0.00000052
     atom    3 type  2   force =     0.00000000   -0.00000055    0.00000054

     Total force =     0.015943     Total SCF correction =     0.000002

     Writing output data file H2O_IR.save
 
     init_run     :     44.90s CPU     23.93s WALL (       1 calls)
     electrons    :    538.30s CPU    276.45s WALL (       1 calls)
     forces       :     15.70s CPU      7.57s WALL (       1 calls)

     Called by init_run:
     wfcinit      :      0.50s CPU      0.39s WALL (       1 calls)
     wfcinit:atom :      0.00s CPU      0.00s WALL (       1 calls)
     wfcinit:wfcr :      0.48s CPU      0.36s WALL (       1 calls)
     potinit      :     14.21s CPU      7.14s WALL (       1 calls)

     Called by electrons:
     c_bands      :     71.89s CPU     39.40s WALL (      40 calls)
     sum_band     :     37.67s CPU     18.32s WALL (      40 calls)
     v_of_rho     :    414.65s CPU    210.71s WALL (      41 calls)
     v_h          :      4.64s CPU      2.71s WALL (      41 calls)
     v_xc         :    420.06s CPU    213.03s WALL (      42 calls)
     newd         :     12.83s CPU      6.01s WALL (      41 calls)
     PAW_pot      :      1.44s CPU      1.44s WALL (      41 calls)
     mix_rho      :      5.01s CPU      3.98s WALL (      40 calls)

     Called by c_bands:
     init_us_2    :      0.07s CPU      0.07s WALL (      81 calls)
     cegterg      :     70.77s CPU     39.28s WALL (      40 calls)

     Called by sum_band:
     sum_band:bec :      0.00s CPU      0.00s WALL (      40 calls)
     addusdens    :      6.33s CPU      3.28s WALL (      40 calls)

     Called by *egterg:
     h_psi        :     48.33s CPU     27.51s WALL (     142 calls)
     s_psi        :      0.04s CPU      0.04s WALL (     142 calls)
     g_psi        :      0.02s CPU      0.02s WALL (     101 calls)
     cdiaghg      :      8.63s CPU      4.59s WALL (     141 calls)
     cegterg:over :      3.63s CPU      1.59s WALL (     101 calls)
     cegterg:upda :      1.55s CPU      0.53s WALL (     101 calls)
     cegterg:last :      2.27s CPU      0.23s WALL (      44 calls)
     cdiaghg:chol :      0.13s CPU      0.13s WALL (     141 calls)
     cdiaghg:inve :      0.09s CPU      0.09s WALL (     141 calls)
     cdiaghg:para :      0.10s CPU      0.10s WALL (     282 calls)

     Called by h_psi:
     h_psi:pot    :     48.28s CPU     27.46s WALL (     142 calls)
     h_psi:calbec :      0.11s CPU      0.11s WALL (     142 calls)
     vloc_psi     :     48.13s CPU     27.31s WALL (     142 calls)
     add_vuspsi   :      0.03s CPU      0.04s WALL (     142 calls)

     General routines
     calbec       :      0.15s CPU      0.15s WALL (     186 calls)
     fft          :    216.44s CPU    110.85s WALL (    2763 calls)
     ffts         :      0.57s CPU      0.57s WALL (      81 calls)
     fftw         :     55.19s CPU     29.61s WALL (    9160 calls)
     interpolate  :      5.85s CPU      3.81s WALL (      81 calls)
 
     Parallel routines
     fft_scatter  :    171.65s CPU     88.58s WALL (   12004 calls)

     PAW routines
     PAW_pot      :      1.44s CPU      1.44s WALL (      41 calls)
     PAW_symme    :      0.01s CPU      0.01s WALL (      81 calls)
 
     PWSCF        : 10m 5.62s CPU     5m12.84s WALL

 
   This run was terminated on:  15:12:12   9Feb2026            

=------------------------------------------------------------------------------=
   JOB DONE.
=------------------------------------------------------------------------------=
