
     Program PWSCF v.6.1 starts on  9Feb2026 at 13:53:51 

     This program is part of the open-source Quantum ESPRESSO suite
     for quantum simulation of materials; please cite
         "P. Giannozzi et al., J. Phys.:Condens. Matter 21 395502 (2009);
          URL http://www.quantum-espresso.org", 
     in publications or presentations arising from this work. More details at
     http://www.quantum-espresso.org/quote

     Parallel version (MPI & OpenMP), running on     192 processor cores
     Number of MPI processes:                96
     Threads/MPI process:                     2
     R & G space division:  proc/nbgrp/npool/nimage =      96
     Reading input from espresso.pwi
Warning: card &IONS ignored
Warning: card    ION_DYNAMICS     = 'BFGS' ignored
Warning: card / ignored
Warning: card &CELL ignored
Warning: card / ignored
Warning: card &FCP ignored
Warning: card / ignored
Warning: card &RISM ignored
Warning: card / ignored

     Current dimensions of program PWSCF are:
     Max number of different atomic species (ntypx) = 10
     Max number of k-points (npk) =  40000
     Max angular momentum in pseudopotentials (lmaxx) =  3

     IMPORTANT: XC functional enforced from input :
     Exchange-correlation      = VDW-DF2 ( 1  4 13  0 2 0)
     Any further DFT definition will be discarded
     Please, verify this is what you really want

               file O.pbe-n-kjpaw_psl.1.0.0.UPF: wavefunction(s)  2S 2P renormalized
               file H.pbe-kjpaw_psl.1.0.0.UPF: wavefunction(s)  1S renormalized

     Subspace diagonalization in iterative solution of the eigenvalue problem:
     one sub-group per band group will be used
     ELPA distributed-memory algorithm (size of sub-group:  6*  6 procs)

 
     Parallelization info
     --------------------
     sticks:   dense  smooth     PW     G-vecs:    dense   smooth      PW
     Min         740     296     74               148294    37508    4688
     Max         741     297     76               148300    37516    4690
     Sum       71041   28417   7129             14236565  3601159  450127
 


     bravais-lattice index     =            0
     lattice parameter (alat)  =      37.7945  a.u.
     unit-cell volume          =   53986.6738 (a.u.)^3
     number of atoms/cell      =            3
     number of atomic types    =            2
     number of electrons       =         8.00
     number of Kohn-Sham states=           40
     kinetic-energy cutoff     =      62.4738  Ry
     charge density cutoff     =     624.7385  Ry
     convergence threshold     =      7.3E-12
     mixing beta               =       0.3333
     number of iterations used =           12  plain     mixing
     Exchange-correlation      = VDW-DF2 ( 1  4 13  0 2 0)

     Effective Screening Medium Method
     =================================
     Boundary Conditions: Vacuum-Slab-Vacuum
     total charge in unit cell        =   0.0000
     grid points for fit at edges     =        4 
 

     celldm(1)=  37.794522  celldm(2)=   0.000000  celldm(3)=   0.000000
     celldm(4)=   0.000000  celldm(5)=   0.000000  celldm(6)=   0.000000

     crystal axes: (cart. coord. in units of alat)
               a(1) = (   1.000000   0.000000   0.000000 )  
               a(2) = (   0.000000   1.000000   0.000000 )  
               a(3) = (   0.000000   0.000000   1.000000 )  

     reciprocal axes: (cart. coord. in units 2 pi/alat)
               b(1) = (  1.000000  0.000000  0.000000 )  
               b(2) = (  0.000000  1.000000  0.000000 )  
               b(3) = (  0.000000  0.000000  1.000000 )  


     PseudoPot. # 1 for  O read from file:
     /work/gf93/f93007/QE/pseudo/O.pbe-n-kjpaw_psl.1.0.0.UPF
     MD5 check sum: c61d840054b6bba219e553541e327118
     Pseudo is Projector augmented-wave + core cor, Zval =  6.0
     Generated using "atomic" code by A. Dal Corso  v.6.1 svn rev. 13369
     Shape of augmentation charge: PSQ
     Using radial grid of 1095 points,  4 beta functions with: 
                l(1) =   0
                l(2) =   0
                l(3) =   1
                l(4) =   1
     Q(r) pseudized with 0 coefficients 


     PseudoPot. # 2 for  H read from file:
     /work/gf93/f93007/QE/pseudo/H.pbe-kjpaw_psl.1.0.0.UPF
     MD5 check sum: 29603ce6b94be0cf73e39cbb1f958d8e
     Pseudo is Projector augmented-wave, Zval =  1.0
     Generated using "atomic" code by A. Dal Corso  v.6.1 svn rev. 13369
     Shape of augmentation charge: PSQ
     Using radial grid of  929 points,  2 beta functions with: 
                l(1) =   0
                l(2) =   0
     Q(r) pseudized with 0 coefficients 


     vdW kernel table read from file vdW_kernel_table
     MD5 check sum: 6d69797d2e858e93e031fb7d16d30e50

     atomic species   valence    mass     pseudopotential
        O              6.00    15.99900      O( 1.00)
        H              1.00     1.00800      H( 1.00)

      4 Sym. Ops. (no inversion) found


                                    s                        frac. trans.

      isym =  1     identity                                     

 cryst.   s( 1) = (     1          0          0      )
                  (     0          1          0      )
                  (     0          0          1      )

 cart.    s( 1) = (  1.0000000  0.0000000  0.0000000 )
                  (  0.0000000  1.0000000  0.0000000 )
                  (  0.0000000  0.0000000  1.0000000 )


      isym =  2     180 deg rotation - cart. axis [0,0,1]        

 cryst.   s( 2) = (    -1          0          0      )
                  (     0         -1          0      )
                  (     0          0          1      )

 cart.    s( 2) = ( -1.0000000  0.0000000  0.0000000 )
                  (  0.0000000 -1.0000000  0.0000000 )
                  (  0.0000000  0.0000000  1.0000000 )


      isym =  3     inv. 180 deg rotation - cart. axis [0,1,0]   

 cryst.   s( 3) = (     1          0          0      )
                  (     0         -1          0      )
                  (     0          0          1      )

 cart.    s( 3) = (  1.0000000  0.0000000  0.0000000 )
                  (  0.0000000 -1.0000000  0.0000000 )
                  (  0.0000000  0.0000000  1.0000000 )


      isym =  4     inv. 180 deg rotation - cart. axis [1,0,0]   

 cryst.   s( 4) = (    -1          0          0      )
                  (     0          1          0      )
                  (     0          0          1      )

 cart.    s( 4) = ( -1.0000000  0.0000000  0.0000000 )
                  (  0.0000000  1.0000000  0.0000000 )
                  (  0.0000000  0.0000000  1.0000000 )


   Cartesian axes

     site n.     atom                  positions (alat units)
         1           O   tau(   1) = (   0.5000000   0.5000000   0.0006590  )
         2           H   tau(   2) = (   0.5000000   0.5384535   0.0297364  )
         3           H   tau(   3) = (   0.5000000   0.4615465   0.0297364  )

   Crystallographic axes

     site n.     atom                  positions (cryst. coord.)
         1           O   tau(   1) = (  0.5000000  0.5000000  0.0006590  )
         2           H   tau(   2) = (  0.5000000  0.5384535  0.0297364  )
         3           H   tau(   3) = (  0.5000000  0.4615465  0.0297364  )

     number of k points=     1
                       cart. coord. in units 2pi/alat
        k(    1) = (   0.0000000   0.0000000   0.0000000), wk =   2.0000000

                       cryst. coord.
        k(    1) = (   0.0000000   0.0000000   0.0000000), wk =   2.0000000

     Dense  grid: 14236565 G-vectors     FFT dimensions: ( 320, 320, 320)

     Smooth grid:  3601159 G-vectors     FFT dimensions: ( 192, 192, 192)

     Estimated max dynamical RAM per process >     488.77MB

     Estimated total allocated dynamical RAM >   46922.27MB

     Initial potential from superposition of free atoms
     Check: negative starting charge=   -0.001152

     starting charge    7.99998, renormalised to    8.00000

     negative rho (up, down):  1.153E-03 0.000E+00


     %%%%%%%%%%%%%%%%%%%%%%%%%%%%%%%%%%%%%%%%%%%%%%%%%%%%%%%%%%%%%%%%%%%%%%%%
     %                                                                      %
     % You are using vdW-DF, which was implemented by the Thonhauser group. %
     % Please cite the following two papers that made this development      %
     % possible and the two reviews that describe the various versions:     %
     %                                                                      %
     %   T. Thonhauser et al., PRL 115, 136402 (2015).                      %
     %   T. Thonhauser et al., PRB 76, 125112 (2007).                       %
     %   K. Berland et al., Rep. Prog. Phys. 78, 066501 (2015).             %
     %   D.C. Langreth et al., J. Phys.: Condens. Matter 21, 084203 (2009). %
     %                                                                      %
     %                                                                      %
     % If you are calculating the stress with vdW-DF, please also cite:     %
     %                                                                      %
     %   R. Sabatini et al., J. Phys.: Condens. Matter 24, 424209 (2012).   %
     %                                                                      %
     %%%%%%%%%%%%%%%%%%%%%%%%%%%%%%%%%%%%%%%%%%%%%%%%%%%%%%%%%%%%%%%%%%%%%%%%


     Carrying out vdW-DF run using the following parameters:
     Nqs    =  20  Npoints =  1024  r_max =  100.000
     q_mesh =  0.00001000  0.04494208  0.09755937  0.15916263
               0.23128650  0.31572767  0.41458969  0.53033537
               0.66584808  0.82450364  1.01025438  1.22772762
               1.48234092  1.78043706  2.12944203  2.53805004
               3.01644009  3.57652955  4.23227104  5.00000000


     -----------------------------------------------
     Non-local corr. energy    =       0.13359697 Ry
     -----------------------------------------------

     Starting wfc are    6 randomized atomic wfcs +   34 random wfc
     Checking if some PAW data can be deallocated... 
       node    0, deallocated PAW data for type:  2
       node    1, deallocated PAW data for type:  2
       node    2, deallocated PAW data for type:  2
       node    3, deallocated PAW data for type:  2
       node    4, deallocated PAW data for type:  2
       node    5, deallocated PAW data for type:  2
       node    6, deallocated PAW data for type:  2
       node    7, deallocated PAW data for type:  2
       node    8, deallocated PAW data for type:  2
       node    9, deallocated PAW data for type:  2
       node   10, deallocated PAW data for type:  2
       node   11, deallocated PAW data for type:  2
       node   12, deallocated PAW data for type:  2
       node   13, deallocated PAW data for type:  2
       node   14, deallocated PAW data for type:  2
       node   15, deallocated PAW data for type:  2
       node   16, deallocated PAW data for type:  2
       node   17, deallocated PAW data for type:  2
       node   18, deallocated PAW data for type:  2
       node   19, deallocated PAW data for type:  2
       node   20, deallocated PAW data for type:  2
       node   21, deallocated PAW data for type:  2
       node   22, deallocated PAW data for type:  2
       node   23, deallocated PAW data for type:  2
       node   24, deallocated PAW data for type:  2
       node   25, deallocated PAW data for type:  2
       node   26, deallocated PAW data for type:  2
       node   27, deallocated PAW data for type:  2
       node   28, deallocated PAW data for type:  2
       node   29, deallocated PAW data for type:  2
       node   30, deallocated PAW data for type:  2
       node   31, deallocated PAW data for type:  2
       node   32, deallocated PAW data for type:  1
       node   33, deallocated PAW data for type:  1
       node   34, deallocated PAW data for type:  1
       node   35, deallocated PAW data for type:  1
       node   36, deallocated PAW data for type:  1
       node   37, deallocated PAW data for type:  1
       node   38, deallocated PAW data for type:  1
       node   39, deallocated PAW data for type:  1
       node   40, deallocated PAW data for type:  1
       node   41, deallocated PAW data for type:  1
       node   42, deallocated PAW data for type:  1
       node   43, deallocated PAW data for type:  1
       node   44, deallocated PAW data for type:  1
       node   45, deallocated PAW data for type:  1
       node   46, deallocated PAW data for type:  1
       node   47, deallocated PAW data for type:  1
       node   48, deallocated PAW data for type:  1
       node   49, deallocated PAW data for type:  1
       node   50, deallocated PAW data for type:  1
       node   51, deallocated PAW data for type:  1
       node   52, deallocated PAW data for type:  1
       node   53, deallocated PAW data for type:  1
       node   54, deallocated PAW data for type:  1
       node   55, deallocated PAW data for type:  1
       node   56, deallocated PAW data for type:  1
       node   57, deallocated PAW data for type:  1
       node   58, deallocated PAW data for type:  1
       node   59, deallocated PAW data for type:  1
       node   60, deallocated PAW data for type:  1
       node   61, deallocated PAW data for type:  1
       node   62, deallocated PAW data for type:  1
       node   63, deallocated PAW data for type:  1
       node   64, deallocated PAW data for type:  1
       node   65, deallocated PAW data for type:  1
       node   66, deallocated PAW data for type:  1
       node   67, deallocated PAW data for type:  1
       node   68, deallocated PAW data for type:  1
       node   69, deallocated PAW data for type:  1
       node   70, deallocated PAW data for type:  1
       node   71, deallocated PAW data for type:  1
       node   72, deallocated PAW data for type:  1
       node   73, deallocated PAW data for type:  1
       node   74, deallocated PAW data for type:  1
       node   75, deallocated PAW data for type:  1
       node   76, deallocated PAW data for type:  1
       node   77, deallocated PAW data for type:  1
       node   78, deallocated PAW data for type:  1
       node   79, deallocated PAW data for type:  1
       node   80, deallocated PAW data for type:  1
       node   81, deallocated PAW data for type:  1
       node   82, deallocated PAW data for type:  1
       node   83, deallocated PAW data for type:  1
       node   84, deallocated PAW data for type:  1
       node   85, deallocated PAW data for type:  1
       node   86, deallocated PAW data for type:  1
       node   87, deallocated PAW data for type:  1
       node   88, deallocated PAW data for type:  1
       node   89, deallocated PAW data for type:  1
       node   90, deallocated PAW data for type:  1
       node   91, deallocated PAW data for type:  1
       node   92, deallocated PAW data for type:  1
       node   93, deallocated PAW data for type:  1
       node   94, deallocated PAW data for type:  1
       node   95, deallocated PAW data for type:  1

     total cpu time spent up to now is       25.7 secs

     per-process dynamical memory:   229.4 Mb

     Self-consistent Calculation

     iteration #  1     ecut=    62.47 Ry     beta=0.33
     Davidson diagonalization with overlap
     ethr =  1.00E-02,  avg # of iterations = 12.0

     negative rho (up, down):  1.368E-03 0.000E+00


     -----------------------------------------------
     Non-local corr. energy    =       0.13513108 Ry
     -----------------------------------------------


     total cpu time spent up to now is       35.1 secs

     total energy              =     -44.94333759 Ry
     Harris-Foulkes estimate   =     -45.20034115 Ry
     estimated scf accuracy    <       0.54550948 Ry

     iteration #  2     ecut=    62.47 Ry     beta=0.33
     Davidson diagonalization with overlap
     ethr =  6.82E-03,  avg # of iterations =  1.0

     negative rho (up, down):  8.912E-04 0.000E+00


     -----------------------------------------------
     Non-local corr. energy    =       0.13572431 Ry
     -----------------------------------------------


     total cpu time spent up to now is       41.8 secs

     total energy              =     -44.98502271 Ry
     Harris-Foulkes estimate   =     -45.00557196 Ry
     estimated scf accuracy    <       0.04953059 Ry

     iteration #  3     ecut=    62.47 Ry     beta=0.33
     Davidson diagonalization with overlap
     ethr =  6.19E-04,  avg # of iterations =  6.0

     negative rho (up, down):  1.513E-03 0.000E+00


     -----------------------------------------------
     Non-local corr. energy    =       0.13507349 Ry
     -----------------------------------------------


     total cpu time spent up to now is       49.7 secs

     total energy              =     -45.00610893 Ry
     Harris-Foulkes estimate   =     -45.03700708 Ry
     estimated scf accuracy    <       0.04687612 Ry

     iteration #  4     ecut=    62.47 Ry     beta=0.33
     Davidson diagonalization with overlap
     ethr =  5.86E-04,  avg # of iterations =  3.0

     negative rho (up, down):  1.563E-03 0.000E+00


     -----------------------------------------------
     Non-local corr. energy    =       0.13640420 Ry
     -----------------------------------------------


     total cpu time spent up to now is       56.6 secs

     total energy              =     -45.00967856 Ry
     Harris-Foulkes estimate   =     -45.04452828 Ry
     estimated scf accuracy    <       0.06801093 Ry

     iteration #  5     ecut=    62.47 Ry     beta=0.33
     Davidson diagonalization with overlap
     ethr =  5.86E-04,  avg # of iterations =  1.0

     negative rho (up, down):  1.479E-03 0.000E+00


     -----------------------------------------------
     Non-local corr. energy    =       0.13635568 Ry
     -----------------------------------------------


     total cpu time spent up to now is       63.2 secs

     total energy              =     -45.01715759 Ry
     Harris-Foulkes estimate   =     -45.01762077 Ry
     estimated scf accuracy    <       0.00426038 Ry

     iteration #  6     ecut=    62.47 Ry     beta=0.33
     Davidson diagonalization with overlap
     ethr =  5.33E-05,  avg # of iterations = 14.0

     negative rho (up, down):  1.481E-03 0.000E+00


     -----------------------------------------------
     Non-local corr. energy    =       0.13629711 Ry
     -----------------------------------------------


     total cpu time spent up to now is       71.9 secs

     total energy              =     -45.02464676 Ry
     Harris-Foulkes estimate   =     -45.02500547 Ry
     estimated scf accuracy    <       0.00168001 Ry

     iteration #  7     ecut=    62.47 Ry     beta=0.33
     Davidson diagonalization with overlap
     ethr =  2.10E-05,  avg # of iterations =  4.0

     negative rho (up, down):  1.553E-03 0.000E+00


     -----------------------------------------------
     Non-local corr. energy    =       0.13622214 Ry
     -----------------------------------------------


     total cpu time spent up to now is       78.8 secs

     total energy              =     -45.02426397 Ry
     Harris-Foulkes estimate   =     -45.02467587 Ry
     estimated scf accuracy    <       0.00089470 Ry

     iteration #  8     ecut=    62.47 Ry     beta=0.33
     Davidson diagonalization with overlap
     ethr =  1.12E-05,  avg # of iterations =  3.0

     negative rho (up, down):  1.557E-03 0.000E+00


     -----------------------------------------------
     Non-local corr. energy    =       0.13620901 Ry
     -----------------------------------------------


     total cpu time spent up to now is       85.6 secs

     total energy              =     -45.02446348 Ry
     Harris-Foulkes estimate   =     -45.02446453 Ry
     estimated scf accuracy    <       0.00000622 Ry

     iteration #  9     ecut=    62.47 Ry     beta=0.33
     Davidson diagonalization with overlap
     ethr =  7.77E-08,  avg # of iterations = 18.0

     negative rho (up, down):  1.568E-03 0.000E+00


     -----------------------------------------------
     Non-local corr. energy    =       0.13621277 Ry
     -----------------------------------------------


     total cpu time spent up to now is       94.1 secs

     total energy              =     -45.02455731 Ry
     Harris-Foulkes estimate   =     -45.02456783 Ry
     estimated scf accuracy    <       0.00008305 Ry

     iteration # 10     ecut=    62.47 Ry     beta=0.33
     Davidson diagonalization with overlap
     ethr =  7.77E-08,  avg # of iterations =  1.0

     negative rho (up, down):  1.585E-03 0.000E+00


     -----------------------------------------------
     Non-local corr. energy    =       0.13622061 Ry
     -----------------------------------------------


     total cpu time spent up to now is      100.7 secs

     total energy              =     -45.02454458 Ry
     Harris-Foulkes estimate   =     -45.02455775 Ry
     estimated scf accuracy    <       0.00006071 Ry

     iteration # 11     ecut=    62.47 Ry     beta=0.33
     Davidson diagonalization with overlap
     ethr =  7.77E-08,  avg # of iterations =  3.0

     negative rho (up, down):  1.586E-03 0.000E+00


     -----------------------------------------------
     Non-local corr. energy    =       0.13622092 Ry
     -----------------------------------------------


     total cpu time spent up to now is      107.5 secs

     total energy              =     -45.02454738 Ry
     Harris-Foulkes estimate   =     -45.02454757 Ry
     estimated scf accuracy    <       0.00001858 Ry

     iteration # 12     ecut=    62.47 Ry     beta=0.33
     Davidson diagonalization with overlap
     ethr =  7.77E-08,  avg # of iterations =  1.0

     negative rho (up, down):  1.587E-03 0.000E+00


     -----------------------------------------------
     Non-local corr. energy    =       0.13622137 Ry
     -----------------------------------------------


     total cpu time spent up to now is      114.1 secs

     total energy              =     -45.02454660 Ry
     Harris-Foulkes estimate   =     -45.02454747 Ry
     estimated scf accuracy    <       0.00001803 Ry

     iteration # 13     ecut=    62.47 Ry     beta=0.33
     Davidson diagonalization with overlap
     ethr =  7.77E-08,  avg # of iterations =  1.0

     negative rho (up, down):  1.584E-03 0.000E+00


     -----------------------------------------------
     Non-local corr. energy    =       0.13622251 Ry
     -----------------------------------------------


     total cpu time spent up to now is      120.7 secs

     total energy              =     -45.02454551 Ry
     Harris-Foulkes estimate   =     -45.02454671 Ry
     estimated scf accuracy    <       0.00001493 Ry

     iteration # 14     ecut=    62.47 Ry     beta=0.33
     Davidson diagonalization with overlap
     ethr =  7.77E-08,  avg # of iterations =  3.0

     negative rho (up, down):  1.589E-03 0.000E+00


     -----------------------------------------------
     Non-local corr. energy    =       0.13622472 Ry
     -----------------------------------------------


     total cpu time spent up to now is      127.5 secs

     total energy              =     -45.02454458 Ry
     Harris-Foulkes estimate   =     -45.02454624 Ry
     estimated scf accuracy    <       0.00000781 Ry

     iteration # 15     ecut=    62.47 Ry     beta=0.33
     Davidson diagonalization with overlap
     ethr =  7.77E-08,  avg # of iterations =  1.0

     negative rho (up, down):  1.587E-03 0.000E+00


     -----------------------------------------------
     Non-local corr. energy    =       0.13622493 Ry
     -----------------------------------------------


     total cpu time spent up to now is      134.2 secs

     total energy              =     -45.02454472 Ry
     Harris-Foulkes estimate   =     -45.02454477 Ry
     estimated scf accuracy    <       0.00000368 Ry

     iteration # 16     ecut=    62.47 Ry     beta=0.33
     Davidson diagonalization with overlap
     ethr =  4.60E-08,  avg # of iterations =  1.0

     negative rho (up, down):  1.586E-03 0.000E+00


     -----------------------------------------------
     Non-local corr. energy    =       0.13622582 Ry
     -----------------------------------------------


     total cpu time spent up to now is      140.8 secs

     total energy              =     -45.02454446 Ry
     Harris-Foulkes estimate   =     -45.02454476 Ry
     estimated scf accuracy    <       0.00000334 Ry

     iteration # 17     ecut=    62.47 Ry     beta=0.33
     Davidson diagonalization with overlap
     ethr =  4.17E-08,  avg # of iterations =  1.0

     negative rho (up, down):  1.584E-03 0.000E+00


     -----------------------------------------------
     Non-local corr. energy    =       0.13622559 Ry
     -----------------------------------------------


     total cpu time spent up to now is      147.3 secs

     total energy              =     -45.02454445 Ry
     Harris-Foulkes estimate   =     -45.02454454 Ry
     estimated scf accuracy    <       0.00000211 Ry

     iteration # 18     ecut=    62.47 Ry     beta=0.33
     Davidson diagonalization with overlap
     ethr =  2.63E-08,  avg # of iterations =  2.0

     negative rho (up, down):  1.582E-03 0.000E+00


     -----------------------------------------------
     Non-local corr. energy    =       0.13622583 Ry
     -----------------------------------------------


     total cpu time spent up to now is      154.0 secs

     total energy              =     -45.02454458 Ry
     Harris-Foulkes estimate   =     -45.02454459 Ry
     estimated scf accuracy    <       0.00000118 Ry

     iteration # 19     ecut=    62.47 Ry     beta=0.33
     Davidson diagonalization with overlap
     ethr =  1.48E-08,  avg # of iterations =  1.0

     negative rho (up, down):  1.582E-03 0.000E+00


     -----------------------------------------------
     Non-local corr. energy    =       0.13622627 Ry
     -----------------------------------------------


     total cpu time spent up to now is      160.6 secs

     total energy              =     -45.02454461 Ry
     Harris-Foulkes estimate   =     -45.02454462 Ry
     estimated scf accuracy    <       0.00000079 Ry

     iteration # 20     ecut=    62.47 Ry     beta=0.33
     Davidson diagonalization with overlap
     ethr =  9.90E-09,  avg # of iterations =  1.0

     negative rho (up, down):  1.581E-03 0.000E+00


     -----------------------------------------------
     Non-local corr. energy    =       0.13622619 Ry
     -----------------------------------------------


     total cpu time spent up to now is      167.2 secs

     total energy              =     -45.02454466 Ry
     Harris-Foulkes estimate   =     -45.02454464 Ry
     estimated scf accuracy    <       0.00000076 Ry

     iteration # 21     ecut=    62.47 Ry     beta=0.33
     Davidson diagonalization with overlap
     ethr =  9.51E-09,  avg # of iterations =  1.0

     negative rho (up, down):  1.576E-03 0.000E+00


     -----------------------------------------------
     Non-local corr. energy    =       0.13622588 Ry
     -----------------------------------------------


     total cpu time spent up to now is      173.9 secs

     total energy              =     -45.02454470 Ry
     Harris-Foulkes estimate   =     -45.02454469 Ry
     estimated scf accuracy    <       0.00000071 Ry

     iteration # 22     ecut=    62.47 Ry     beta=0.33
     Davidson diagonalization with overlap
     ethr =  8.82E-09,  avg # of iterations =  3.0

     negative rho (up, down):  1.579E-03 0.000E+00


     -----------------------------------------------
     Non-local corr. energy    =       0.13622590 Ry
     -----------------------------------------------


     total cpu time spent up to now is      180.8 secs

     total energy              =     -45.02454487 Ry
     Harris-Foulkes estimate   =     -45.02454496 Ry
     estimated scf accuracy    <       0.00000007 Ry

     iteration # 23     ecut=    62.47 Ry     beta=0.33
     Davidson diagonalization with overlap
     ethr =  8.82E-10,  avg # of iterations =  3.0

     negative rho (up, down):  1.577E-03 0.000E+00


     -----------------------------------------------
     Non-local corr. energy    =       0.13622610 Ry
     -----------------------------------------------


     total cpu time spent up to now is      187.6 secs

     total energy              =     -45.02454496 Ry
     Harris-Foulkes estimate   =     -45.02454489 Ry
     estimated scf accuracy    <       0.00000004 Ry

     iteration # 24     ecut=    62.47 Ry     beta=0.33
     Davidson diagonalization with overlap
     ethr =  4.43E-10,  avg # of iterations =  3.0

     negative rho (up, down):  1.577E-03 0.000E+00


     -----------------------------------------------
     Non-local corr. energy    =       0.13622618 Ry
     -----------------------------------------------


     total cpu time spent up to now is      194.4 secs

     total energy              =     -45.02454510 Ry
     Harris-Foulkes estimate   =     -45.02454498 Ry
     estimated scf accuracy    <       0.00000021 Ry

     iteration # 25     ecut=    62.47 Ry     beta=0.33
     Davidson diagonalization with overlap
     ethr =  4.43E-10,  avg # of iterations =  3.0

     negative rho (up, down):  1.579E-03 0.000E+00


     -----------------------------------------------
     Non-local corr. energy    =       0.13622544 Ry
     -----------------------------------------------


     total cpu time spent up to now is      201.2 secs

     total energy              =     -45.02454463 Ry
     Harris-Foulkes estimate   =     -45.02454513 Ry
     estimated scf accuracy    <       0.00000069 Ry

     iteration # 26     ecut=    62.47 Ry     beta=0.33
     Davidson diagonalization with overlap
     ethr =  4.43E-10,  avg # of iterations =  4.0

     negative rho (up, down):  1.575E-03 0.000E+00


     -----------------------------------------------
     Non-local corr. energy    =       0.13622581 Ry
     -----------------------------------------------


     total cpu time spent up to now is      208.1 secs

     total energy              =     -45.02454487 Ry
     Harris-Foulkes estimate   =     -45.02454479 Ry
     estimated scf accuracy    <       0.00000002 Ry

     iteration # 27     ecut=    62.47 Ry     beta=0.33
     Davidson diagonalization with overlap
     ethr =  2.95E-10,  avg # of iterations =  4.0

     negative rho (up, down):  1.578E-03 0.000E+00


     -----------------------------------------------
     Non-local corr. energy    =       0.13622550 Ry
     -----------------------------------------------


     total cpu time spent up to now is      215.0 secs

     total energy              =     -45.02454463 Ry
     Harris-Foulkes estimate   =     -45.02454496 Ry
     estimated scf accuracy    <       0.00000034 Ry

     iteration # 28     ecut=    62.47 Ry     beta=0.33
     Davidson diagonalization with overlap
     ethr =  2.95E-10,  avg # of iterations =  4.0

     negative rho (up, down):  1.576E-03 0.000E+00


     -----------------------------------------------
     Non-local corr. energy    =       0.13622557 Ry
     -----------------------------------------------


     total cpu time spent up to now is      222.0 secs

     total energy              =     -45.02454479 Ry
     Harris-Foulkes estimate   =     -45.02454478 Ry
     estimated scf accuracy    <       0.00000011 Ry

     iteration # 29     ecut=    62.47 Ry     beta=0.33
     Davidson diagonalization with overlap
     ethr =  2.95E-10,  avg # of iterations =  3.0

     negative rho (up, down):  1.577E-03 0.000E+00


     -----------------------------------------------
     Non-local corr. energy    =       0.13622501 Ry
     -----------------------------------------------


     total cpu time spent up to now is      228.8 secs

     total energy              =     -45.02454483 Ry
     Harris-Foulkes estimate   =     -45.02454480 Ry
     estimated scf accuracy    <          9.2E-09 Ry

     iteration # 30     ecut=    62.47 Ry     beta=0.33
     Davidson diagonalization with overlap
     ethr =  1.15E-10,  avg # of iterations =  3.0

     negative rho (up, down):  1.577E-03 0.000E+00


     -----------------------------------------------
     Non-local corr. energy    =       0.13622510 Ry
     -----------------------------------------------


     total cpu time spent up to now is      235.6 secs

     total energy              =     -45.02454485 Ry
     Harris-Foulkes estimate   =     -45.02454484 Ry
     estimated scf accuracy    <       0.00000008 Ry

     iteration # 31     ecut=    62.47 Ry     beta=0.33
     Davidson diagonalization with overlap
     ethr =  1.15E-10,  avg # of iterations =  3.0

     negative rho (up, down):  1.577E-03 0.000E+00


     -----------------------------------------------
     Non-local corr. energy    =       0.13622516 Ry
     -----------------------------------------------


     total cpu time spent up to now is      242.4 secs

     total energy              =     -45.02454486 Ry
     Harris-Foulkes estimate   =     -45.02454486 Ry
     estimated scf accuracy    <          4.9E-09 Ry

     iteration # 32     ecut=    62.47 Ry     beta=0.33
     Davidson diagonalization with overlap
     ethr =  6.10E-11,  avg # of iterations =  1.0

     negative rho (up, down):  1.576E-03 0.000E+00


     -----------------------------------------------
     Non-local corr. energy    =       0.13622521 Ry
     -----------------------------------------------


     total cpu time spent up to now is      249.0 secs

     total energy              =     -45.02454486 Ry
     Harris-Foulkes estimate   =     -45.02454486 Ry
     estimated scf accuracy    <          1.5E-09 Ry

     iteration # 33     ecut=    62.47 Ry     beta=0.33
     Davidson diagonalization with overlap
     ethr =  1.85E-11,  avg # of iterations =  3.0

     negative rho (up, down):  1.577E-03 0.000E+00


     -----------------------------------------------
     Non-local corr. energy    =       0.13622522 Ry
     -----------------------------------------------


     total cpu time spent up to now is      255.8 secs

     total energy              =     -45.02454486 Ry
     Harris-Foulkes estimate   =     -45.02454486 Ry
     estimated scf accuracy    <          1.5E-09 Ry

     iteration # 34     ecut=    62.47 Ry     beta=0.33
     Davidson diagonalization with overlap
     ethr =  1.85E-11,  avg # of iterations =  1.0

     negative rho (up, down):  1.577E-03 0.000E+00


     -----------------------------------------------
     Non-local corr. energy    =       0.13622522 Ry
     -----------------------------------------------


     total cpu time spent up to now is      262.4 secs

     total energy              =     -45.02454486 Ry
     Harris-Foulkes estimate   =     -45.02454486 Ry
     estimated scf accuracy    <          6.6E-10 Ry

     iteration # 35     ecut=    62.47 Ry     beta=0.33
     Davidson diagonalization with overlap
     ethr =  8.23E-12,  avg # of iterations =  3.0

     negative rho (up, down):  1.576E-03 0.000E+00


     -----------------------------------------------
     Non-local corr. energy    =       0.13622523 Ry
     -----------------------------------------------


     total cpu time spent up to now is      269.1 secs

     total energy              =     -45.02454486 Ry
     Harris-Foulkes estimate   =     -45.02454486 Ry
     estimated scf accuracy    <          2.3E-10 Ry

     iteration # 36     ecut=    62.47 Ry     beta=0.33
     Davidson diagonalization with overlap
     ethr =  2.89E-12,  avg # of iterations =  3.0

     negative rho (up, down):  1.576E-03 0.000E+00


     -----------------------------------------------
     Non-local corr. energy    =       0.13622523 Ry
     -----------------------------------------------


     total cpu time spent up to now is      275.9 secs

     total energy              =     -45.02454486 Ry
     Harris-Foulkes estimate   =     -45.02454486 Ry
     estimated scf accuracy    <          4.7E-10 Ry

     iteration # 37     ecut=    62.47 Ry     beta=0.33
     Davidson diagonalization with overlap
     ethr =  2.89E-12,  avg # of iterations =  1.0

     negative rho (up, down):  1.577E-03 0.000E+00


     -----------------------------------------------
     Non-local corr. energy    =       0.13622528 Ry
     -----------------------------------------------


     total cpu time spent up to now is      282.5 secs

     total energy              =     -45.02454486 Ry
     Harris-Foulkes estimate   =     -45.02454486 Ry
     estimated scf accuracy    <          5.1E-10 Ry

     iteration # 38     ecut=    62.47 Ry     beta=0.33
     Davidson diagonalization with overlap
     ethr =  2.89E-12,  avg # of iterations =  1.0

     negative rho (up, down):  1.577E-03 0.000E+00


     -----------------------------------------------
     Non-local corr. energy    =       0.13622529 Ry
     -----------------------------------------------


     total cpu time spent up to now is      289.1 secs

     total energy              =     -45.02454486 Ry
     Harris-Foulkes estimate   =     -45.02454486 Ry
     estimated scf accuracy    <          1.6E-10 Ry

     iteration # 39     ecut=    62.47 Ry     beta=0.33
     Davidson diagonalization with overlap
     ethr =  2.00E-12,  avg # of iterations =  3.0

     negative rho (up, down):  1.577E-03 0.000E+00


     -----------------------------------------------
     Non-local corr. energy    =       0.13622530 Ry
     -----------------------------------------------


     total cpu time spent up to now is      295.9 secs

     total energy              =     -45.02454486 Ry
     Harris-Foulkes estimate   =     -45.02454486 Ry
     estimated scf accuracy    <          1.5E-10 Ry

     iteration # 40     ecut=    62.47 Ry     beta=0.33
     Davidson diagonalization with overlap
     ethr =  1.87E-12,  avg # of iterations =  1.0

     negative rho (up, down):  1.577E-03 0.000E+00


     -----------------------------------------------
     Non-local corr. energy    =       0.13622530 Ry
     -----------------------------------------------


     total cpu time spent up to now is      302.5 secs

     total energy              =     -45.02454486 Ry
     Harris-Foulkes estimate   =     -45.02454486 Ry
     estimated scf accuracy    <          3.2E-10 Ry

     iteration # 41     ecut=    62.47 Ry     beta=0.33
     Davidson diagonalization with overlap
     ethr =  1.87E-12,  avg # of iterations =  1.0

     negative rho (up, down):  1.577E-03 0.000E+00


     -----------------------------------------------
     Non-local corr. energy    =       0.13622529 Ry
     -----------------------------------------------


     total cpu time spent up to now is      309.1 secs

     total energy              =     -45.02454486 Ry
     Harris-Foulkes estimate   =     -45.02454486 Ry
     estimated scf accuracy    <          3.2E-10 Ry

     iteration # 42     ecut=    62.47 Ry     beta=0.33
     Davidson diagonalization with overlap
     ethr =  1.87E-12,  avg # of iterations =  1.0

     negative rho (up, down):  1.576E-03 0.000E+00


     -----------------------------------------------
     Non-local corr. energy    =       0.13622528 Ry
     -----------------------------------------------


     total cpu time spent up to now is      315.7 secs

     total energy              =     -45.02454486 Ry
     Harris-Foulkes estimate   =     -45.02454486 Ry
     estimated scf accuracy    <          1.9E-10 Ry

     iteration # 43     ecut=    62.47 Ry     beta=0.33
     Davidson diagonalization with overlap
     ethr =  1.87E-12,  avg # of iterations =  1.0

     negative rho (up, down):  1.576E-03 0.000E+00


     -----------------------------------------------
     Non-local corr. energy    =       0.13622528 Ry
     -----------------------------------------------


     total cpu time spent up to now is      322.3 secs

     total energy              =     -45.02454486 Ry
     Harris-Foulkes estimate   =     -45.02454486 Ry
     estimated scf accuracy    <          1.0E-10 Ry

     iteration # 44     ecut=    62.47 Ry     beta=0.33
     Davidson diagonalization with overlap
     ethr =  1.29E-12,  avg # of iterations =  1.0

     negative rho (up, down):  1.577E-03 0.000E+00


     -----------------------------------------------
     Non-local corr. energy    =       0.13622528 Ry
     -----------------------------------------------


     total cpu time spent up to now is      328.9 secs

     total energy              =     -45.02454486 Ry
     Harris-Foulkes estimate   =     -45.02454486 Ry
     estimated scf accuracy    <          1.2E-10 Ry

     iteration # 45     ecut=    62.47 Ry     beta=0.33
     Davidson diagonalization with overlap
     ethr =  1.29E-12,  avg # of iterations =  1.0

     negative rho (up, down):  1.577E-03 0.000E+00


     -----------------------------------------------
     Non-local corr. energy    =       0.13622527 Ry
     -----------------------------------------------


     total cpu time spent up to now is      335.4 secs

     total energy              =     -45.02454486 Ry
     Harris-Foulkes estimate   =     -45.02454486 Ry
     estimated scf accuracy    <          1.2E-10 Ry

     iteration # 46     ecut=    62.47 Ry     beta=0.33
     Davidson diagonalization with overlap
     ethr =  1.29E-12,  avg # of iterations =  1.0

     negative rho (up, down):  1.577E-03 0.000E+00


     -----------------------------------------------
     Non-local corr. energy    =       0.13622527 Ry
     -----------------------------------------------


     total cpu time spent up to now is      342.0 secs

     total energy              =     -45.02454486 Ry
     Harris-Foulkes estimate   =     -45.02454486 Ry
     estimated scf accuracy    <          3.5E-11 Ry

     iteration # 47     ecut=    62.47 Ry     beta=0.33
     Davidson diagonalization with overlap
     ethr =  4.34E-13,  avg # of iterations =  1.0

     negative rho (up, down):  1.577E-03 0.000E+00


     -----------------------------------------------
     Non-local corr. energy    =       0.13622527 Ry
     -----------------------------------------------


     total cpu time spent up to now is      348.6 secs

     total energy              =     -45.02454486 Ry
     Harris-Foulkes estimate   =     -45.02454486 Ry
     estimated scf accuracy    <          3.0E-11 Ry

     iteration # 48     ecut=    62.47 Ry     beta=0.33
     Davidson diagonalization with overlap
     ethr =  3.74E-13,  avg # of iterations =  1.0

     negative rho (up, down):  1.577E-03 0.000E+00


     -----------------------------------------------
     Non-local corr. energy    =       0.13622527 Ry
     -----------------------------------------------


     total cpu time spent up to now is      355.2 secs

     total energy              =     -45.02454486 Ry
     Harris-Foulkes estimate   =     -45.02454486 Ry
     estimated scf accuracy    <          2.4E-11 Ry

     iteration # 49     ecut=    62.47 Ry     beta=0.33
     Davidson diagonalization with overlap
     ethr =  2.99E-13,  avg # of iterations =  1.0

     negative rho (up, down):  1.577E-03 0.000E+00


     -----------------------------------------------
     Non-local corr. energy    =       0.13622527 Ry
     -----------------------------------------------


     total cpu time spent up to now is      361.8 secs

     total energy              =     -45.02454486 Ry
     Harris-Foulkes estimate   =     -45.02454486 Ry
     estimated scf accuracy    <          2.3E-11 Ry

     iteration # 50     ecut=    62.47 Ry     beta=0.33
     Davidson diagonalization with overlap
     ethr =  2.81E-13,  avg # of iterations =  1.0

     negative rho (up, down):  1.577E-03 0.000E+00


     -----------------------------------------------
     Non-local corr. energy    =       0.13622527 Ry
     -----------------------------------------------


     total cpu time spent up to now is      368.4 secs

     total energy              =     -45.02454486 Ry
     Harris-Foulkes estimate   =     -45.02454486 Ry
     estimated scf accuracy    <          1.2E-11 Ry

     iteration # 51     ecut=    62.47 Ry     beta=0.33
     Davidson diagonalization with overlap
     ethr =  1.56E-13,  avg # of iterations =  3.0

     negative rho (up, down):  1.577E-03 0.000E+00


     -----------------------------------------------
     Non-local corr. energy    =       0.13622526 Ry
     -----------------------------------------------


     total cpu time spent up to now is      375.0 secs

     End of self-consistent calculation

          k = 0.0000 0.0000 0.0000 (450127 PWs)   bands (ev):

   -25.6735 -13.6499  -9.6555  -7.6644  -1.4477  -0.1528   0.0004   0.1337
     0.1430   0.1857   0.2110   0.3037   0.3173   0.4484   0.4678   0.5454
     0.5465   0.5494   0.5597   0.5765   0.5869   0.5877   0.5880   0.7596
     0.7798   0.8646   0.8803   0.9201   0.9280   0.9419   0.9549   1.0799
     1.1158   1.2066   1.2250   1.2633   1.2925   1.3868   1.4187   1.4777

     occupation numbers 
     1.0000   1.0000   1.0000   1.0000   0.0000   0.0000   0.0000   0.0000
     0.0000   0.0000   0.0000   0.0000   0.0000   0.0000   0.0000   0.0000
     0.0000   0.0000   0.0000   0.0000   0.0000   0.0000   0.0000   0.0000
     0.0000   0.0000   0.0000   0.0000   0.0000   0.0000   0.0000   0.0000
     0.0000   0.0000   0.0000   0.0000   0.0000   0.0000   0.0000   0.0000

     highest occupied, lowest unoccupied level (ev):    -7.6644   -1.4477

!    total energy              =     -45.02454486 Ry
     Harris-Foulkes estimate   =     -45.02454486 Ry
     estimated scf accuracy    <          6.1E-13 Ry

     total all-electron energy =      -153.871427 Ry

     The total energy is the sum of the following terms:

     one-electron contribution =     -68.99845330 Ry
     hartree contribution      =      36.18354972 Ry
     xc contribution           =      -9.23983827 Ry
     ewald contribution        =       7.25580340 Ry
     one-center paw contrib.   =     -10.22560640 Ry
      -> PAW hartree energy AE =      28.03054103 Ry
      -> PAW hartree energy PS =     -27.99580016 Ry
      -> PAW xc energy AE      =     -17.92405823 Ry
      -> PAW xc energy PS      =       7.66495972 Ry
      -> total E_H with PAW    =      36.21829059 Ry
      -> total E_XC with PAW   =     -19.49893678 Ry

     convergence has been achieved in  51 iterations

     negative rho (up, down):  1.577E-03 0.000E+00


     -----------------------------------------------
     Non-local corr. energy    =       0.13622526 Ry
     -----------------------------------------------


     Forces acting on atoms (cartesian axes, Ry/au):

     atom    1 type  1   force =     0.00000000    0.00000000   -0.01576491
     atom    2 type  2   force =     0.00000000    0.00702401    0.00788681
     atom    3 type  2   force =     0.00000000   -0.00702401    0.00788681
     The non-local contrib.  to forces
     atom    1 type  1   force =     0.00000000    0.00000000    2.50698779
     atom    2 type  2   force =     0.00000000   -0.09515874   -0.06598312
     atom    3 type  2   force =     0.00000000    0.09515874   -0.06598312
     The ionic contribution  to forces
     atom    1 type  1   force =     0.00000000    0.00000000   -4.36462817
     atom    2 type  2   force =     0.00000000    3.11785913    2.18231409
     atom    3 type  2   force =     0.00000000   -3.11785913    2.18231409
     The local contribution  to forces
     atom    1 type  1   force =    -0.00001466   -0.00001431    1.86590992
     atom    2 type  2   force =    -0.00000130   -3.01567655   -2.10844325
     atom    3 type  2   force =    -0.00000130    3.01567593   -2.10844470
     The core correction contribution to forces
     atom    1 type  1   force =     0.00000014    0.00000004   -0.02403332
     atom    2 type  2   force =     0.00000000    0.00000000    0.00000000
     atom    3 type  2   force =     0.00000000    0.00000000    0.00000000
     The Hubbard contrib.    to forces
     atom    1 type  1   force =     0.00000000    0.00000000    0.00000000
     atom    2 type  2   force =     0.00000000    0.00000000    0.00000000
     atom    3 type  2   force =     0.00000000    0.00000000    0.00000000
     The SCF correction term to forces
     atom    1 type  1   force =     0.00000000    0.00000000   -0.00000112
     atom    2 type  2   force =     0.00000000   -0.00000014   -0.00000018
     atom    3 type  2   force =     0.00000000    0.00000014   -0.00000018

     Total force =     0.021717     Total SCF correction =     0.000001

     Writing output data file H2O_IR.save
 
     init_run     :     45.08s CPU     24.08s WALL (       1 calls)
     electrons    :    682.23s CPU    350.47s WALL (       1 calls)
     forces       :     14.67s CPU      7.58s WALL (       1 calls)

     Called by init_run:
     wfcinit      :      0.38s CPU      0.39s WALL (       1 calls)
     wfcinit:atom :      0.00s CPU      0.00s WALL (       1 calls)
     wfcinit:wfcr :      0.35s CPU      0.36s WALL (       1 calls)
     potinit      :     13.07s CPU      7.07s WALL (       1 calls)

     Called by electrons:
     c_bands      :     99.28s CPU     50.79s WALL (      51 calls)
     sum_band     :     41.59s CPU     21.42s WALL (      51 calls)
     v_of_rho     :    520.92s CPU    266.07s WALL (      52 calls)
     v_h          :      6.37s CPU      3.47s WALL (      52 calls)
     v_xc         :    524.61s CPU    267.64s WALL (      53 calls)
     newd         :      9.24s CPU      7.31s WALL (      52 calls)
     PAW_pot      :      3.88s CPU      1.85s WALL (      52 calls)
     mix_rho      :     11.36s CPU      5.20s WALL (      51 calls)

     Called by c_bands:
     init_us_2    :      0.09s CPU      0.09s WALL (     103 calls)
     cegterg      :     98.12s CPU     50.63s WALL (      51 calls)

     Called by sum_band:
     sum_band:bec :      0.00s CPU      0.00s WALL (      51 calls)
     addusdens    :      5.23s CPU      4.22s WALL (      51 calls)

     Called by *egterg:
     h_psi        :     72.45s CPU     34.39s WALL (     194 calls)
     s_psi        :      0.05s CPU      0.05s WALL (     194 calls)
     g_psi        :      0.02s CPU      0.02s WALL (     142 calls)
     cdiaghg      :     11.60s CPU      6.34s WALL (     193 calls)
     cegterg:over :      5.20s CPU      2.15s WALL (     142 calls)
     cegterg:upda :      0.68s CPU      0.68s WALL (     142 calls)
     cegterg:last :      0.27s CPU      0.28s WALL (      55 calls)
     cdiaghg:chol :      0.18s CPU      0.18s WALL (     193 calls)
     cdiaghg:inve :      0.12s CPU      0.12s WALL (     193 calls)
     cdiaghg:para :      0.13s CPU      0.14s WALL (     386 calls)

     Called by h_psi:
     h_psi:pot    :     72.40s CPU     34.33s WALL (     194 calls)
     h_psi:calbec :      0.15s CPU      0.15s WALL (     194 calls)
     vloc_psi     :     72.20s CPU     34.13s WALL (     194 calls)
     add_vuspsi   :      0.04s CPU      0.05s WALL (     194 calls)

     General routines
     calbec       :      0.20s CPU      0.20s WALL (     249 calls)
     fft          :    269.60s CPU    139.21s WALL (    3489 calls)
     ffts         :      1.74s CPU      0.72s WALL (     103 calls)
     fftw         :     81.22s CPU     37.25s WALL (   11488 calls)
     interpolate  :      9.98s CPU      4.88s WALL (     103 calls)
 
     Parallel routines
     fft_scatter  :    221.57s CPU    112.11s WALL (   15080 calls)

     PAW routines
     PAW_pot      :      3.88s CPU      1.85s WALL (      52 calls)
     PAW_symme    :      0.01s CPU      0.01s WALL (     103 calls)
 
     PWSCF        : 12m28.34s CPU     6m27.06s WALL

 
   This run was terminated on:  14: 0:18   9Feb2026            

=------------------------------------------------------------------------------=
   JOB DONE.
=------------------------------------------------------------------------------=
