
     Program PWSCF v.6.1 starts on  9Feb2026 at 14:17:29 

     This program is part of the open-source Quantum ESPRESSO suite
     for quantum simulation of materials; please cite
         "P. Giannozzi et al., J. Phys.:Condens. Matter 21 395502 (2009);
          URL http://www.quantum-espresso.org", 
     in publications or presentations arising from this work. More details at
     http://www.quantum-espresso.org/quote

     Parallel version (MPI & OpenMP), running on     192 processor cores
     Number of MPI processes:                96
     Threads/MPI process:                     2
     R & G space division:  proc/nbgrp/npool/nimage =      96
     Reading input from espresso.pwi
Warning: card &IONS ignored
Warning: card    ION_DYNAMICS     = 'BFGS' ignored
Warning: card / ignored
Warning: card &CELL ignored
Warning: card / ignored
Warning: card &FCP ignored
Warning: card / ignored
Warning: card &RISM ignored
Warning: card / ignored

     Current dimensions of program PWSCF are:
     Max number of different atomic species (ntypx) = 10
     Max number of k-points (npk) =  40000
     Max angular momentum in pseudopotentials (lmaxx) =  3

     IMPORTANT: XC functional enforced from input :
     Exchange-correlation      = VDW-DF2 ( 1  4 13  0 2 0)
     Any further DFT definition will be discarded
     Please, verify this is what you really want

               file O.pbe-n-kjpaw_psl.1.0.0.UPF: wavefunction(s)  2S 2P renormalized
               file H.pbe-kjpaw_psl.1.0.0.UPF: wavefunction(s)  1S renormalized

     Subspace diagonalization in iterative solution of the eigenvalue problem:
     one sub-group per band group will be used
     ELPA distributed-memory algorithm (size of sub-group:  6*  6 procs)

 
     Parallelization info
     --------------------
     sticks:   dense  smooth     PW     G-vecs:    dense   smooth      PW
     Min         740     296     74               148294    37508    4688
     Max         741     297     76               148300    37516    4690
     Sum       71041   28417   7129             14236565  3601159  450127
 


     bravais-lattice index     =            0
     lattice parameter (alat)  =      37.7945  a.u.
     unit-cell volume          =   53986.6738 (a.u.)^3
     number of atoms/cell      =            3
     number of atomic types    =            2
     number of electrons       =         8.00
     number of Kohn-Sham states=           40
     kinetic-energy cutoff     =      62.4738  Ry
     charge density cutoff     =     624.7385  Ry
     convergence threshold     =      7.3E-12
     mixing beta               =       0.3333
     number of iterations used =           12  plain     mixing
     Exchange-correlation      = VDW-DF2 ( 1  4 13  0 2 0)

     Effective Screening Medium Method
     =================================
     Boundary Conditions: Vacuum-Slab-Vacuum
     total charge in unit cell        =   0.0000
     grid points for fit at edges     =        4 
 

     celldm(1)=  37.794522  celldm(2)=   0.000000  celldm(3)=   0.000000
     celldm(4)=   0.000000  celldm(5)=   0.000000  celldm(6)=   0.000000

     crystal axes: (cart. coord. in units of alat)
               a(1) = (   1.000000   0.000000   0.000000 )  
               a(2) = (   0.000000   1.000000   0.000000 )  
               a(3) = (   0.000000   0.000000   1.000000 )  

     reciprocal axes: (cart. coord. in units 2 pi/alat)
               b(1) = (  1.000000  0.000000  0.000000 )  
               b(2) = (  0.000000  1.000000  0.000000 )  
               b(3) = (  0.000000  0.000000  1.000000 )  


     PseudoPot. # 1 for  O read from file:
     /work/gf93/f93007/QE/pseudo/O.pbe-n-kjpaw_psl.1.0.0.UPF
     MD5 check sum: c61d840054b6bba219e553541e327118
     Pseudo is Projector augmented-wave + core cor, Zval =  6.0
     Generated using "atomic" code by A. Dal Corso  v.6.1 svn rev. 13369
     Shape of augmentation charge: PSQ
     Using radial grid of 1095 points,  4 beta functions with: 
                l(1) =   0
                l(2) =   0
                l(3) =   1
                l(4) =   1
     Q(r) pseudized with 0 coefficients 


     PseudoPot. # 2 for  H read from file:
     /work/gf93/f93007/QE/pseudo/H.pbe-kjpaw_psl.1.0.0.UPF
     MD5 check sum: 29603ce6b94be0cf73e39cbb1f958d8e
     Pseudo is Projector augmented-wave, Zval =  1.0
     Generated using "atomic" code by A. Dal Corso  v.6.1 svn rev. 13369
     Shape of augmentation charge: PSQ
     Using radial grid of  929 points,  2 beta functions with: 
                l(1) =   0
                l(2) =   0
     Q(r) pseudized with 0 coefficients 


     vdW kernel table read from file vdW_kernel_table
     MD5 check sum: 6d69797d2e858e93e031fb7d16d30e50

     atomic species   valence    mass     pseudopotential
        O              6.00    15.99900      O( 1.00)
        H              1.00     1.00800      H( 1.00)

      2 Sym. Ops. (no inversion) found


                                    s                        frac. trans.

      isym =  1     identity                                     

 cryst.   s( 1) = (     1          0          0      )
                  (     0          1          0      )
                  (     0          0          1      )

 cart.    s( 1) = (  1.0000000  0.0000000  0.0000000 )
                  (  0.0000000  1.0000000  0.0000000 )
                  (  0.0000000  0.0000000  1.0000000 )


      isym =  2     inv. 180 deg rotation - cart. axis [1,0,0]   

 cryst.   s( 2) = (    -1          0          0      )
                  (     0          1          0      )
                  (     0          0          1      )

 cart.    s( 2) = ( -1.0000000  0.0000000  0.0000000 )
                  (  0.0000000  1.0000000  0.0000000 )
                  (  0.0000000  0.0000000  1.0000000 )


   Cartesian axes

     site n.     atom                  positions (alat units)
         1           O   tau(   1) = (   0.5000000   0.5000000   0.0001590  )
         2           H   tau(   2) = (   0.5000000   0.5389535   0.0297364  )
         3           H   tau(   3) = (   0.5000000   0.4615465   0.0297364  )

   Crystallographic axes

     site n.     atom                  positions (cryst. coord.)
         1           O   tau(   1) = (  0.5000000  0.5000000  0.0001590  )
         2           H   tau(   2) = (  0.5000000  0.5389535  0.0297364  )
         3           H   tau(   3) = (  0.5000000  0.4615465  0.0297364  )

     number of k points=     1
                       cart. coord. in units 2pi/alat
        k(    1) = (   0.0000000   0.0000000   0.0000000), wk =   2.0000000

                       cryst. coord.
        k(    1) = (   0.0000000   0.0000000   0.0000000), wk =   2.0000000

     Dense  grid: 14236565 G-vectors     FFT dimensions: ( 320, 320, 320)

     Smooth grid:  3601159 G-vectors     FFT dimensions: ( 192, 192, 192)

     Estimated max dynamical RAM per process >     488.77MB

     Estimated total allocated dynamical RAM >   46922.27MB

     Initial potential from superposition of free atoms
     Check: negative starting charge=   -0.001152

     starting charge    7.99998, renormalised to    8.00000

     negative rho (up, down):  1.152E-03 0.000E+00


     %%%%%%%%%%%%%%%%%%%%%%%%%%%%%%%%%%%%%%%%%%%%%%%%%%%%%%%%%%%%%%%%%%%%%%%%
     %                                                                      %
     % You are using vdW-DF, which was implemented by the Thonhauser group. %
     % Please cite the following two papers that made this development      %
     % possible and the two reviews that describe the various versions:     %
     %                                                                      %
     %   T. Thonhauser et al., PRL 115, 136402 (2015).                      %
     %   T. Thonhauser et al., PRB 76, 125112 (2007).                       %
     %   K. Berland et al., Rep. Prog. Phys. 78, 066501 (2015).             %
     %   D.C. Langreth et al., J. Phys.: Condens. Matter 21, 084203 (2009). %
     %                                                                      %
     %                                                                      %
     % If you are calculating the stress with vdW-DF, please also cite:     %
     %                                                                      %
     %   R. Sabatini et al., J. Phys.: Condens. Matter 24, 424209 (2012).   %
     %                                                                      %
     %%%%%%%%%%%%%%%%%%%%%%%%%%%%%%%%%%%%%%%%%%%%%%%%%%%%%%%%%%%%%%%%%%%%%%%%


     Carrying out vdW-DF run using the following parameters:
     Nqs    =  20  Npoints =  1024  r_max =  100.000
     q_mesh =  0.00001000  0.04494208  0.09755937  0.15916263
               0.23128650  0.31572767  0.41458969  0.53033537
               0.66584808  0.82450364  1.01025438  1.22772762
               1.48234092  1.78043706  2.12944203  2.53805004
               3.01644009  3.57652955  4.23227104  5.00000000


     -----------------------------------------------
     Non-local corr. energy    =       0.13356856 Ry
     -----------------------------------------------

     Starting wfc are    6 randomized atomic wfcs +   34 random wfc
     Checking if some PAW data can be deallocated... 
       node    0, deallocated PAW data for type:  2
       node    1, deallocated PAW data for type:  2
       node    2, deallocated PAW data for type:  2
       node    3, deallocated PAW data for type:  2
       node    4, deallocated PAW data for type:  2
       node    5, deallocated PAW data for type:  2
       node    6, deallocated PAW data for type:  2
       node    7, deallocated PAW data for type:  2
       node    8, deallocated PAW data for type:  2
       node    9, deallocated PAW data for type:  2
       node   10, deallocated PAW data for type:  2
       node   11, deallocated PAW data for type:  2
       node   12, deallocated PAW data for type:  2
       node   13, deallocated PAW data for type:  2
       node   14, deallocated PAW data for type:  2
       node   15, deallocated PAW data for type:  2
       node   16, deallocated PAW data for type:  2
       node   17, deallocated PAW data for type:  2
       node   18, deallocated PAW data for type:  2
       node   19, deallocated PAW data for type:  2
       node   20, deallocated PAW data for type:  2
       node   21, deallocated PAW data for type:  2
       node   22, deallocated PAW data for type:  2
       node   23, deallocated PAW data for type:  2
       node   24, deallocated PAW data for type:  2
       node   25, deallocated PAW data for type:  2
       node   26, deallocated PAW data for type:  2
       node   27, deallocated PAW data for type:  2
       node   28, deallocated PAW data for type:  2
       node   29, deallocated PAW data for type:  2
       node   30, deallocated PAW data for type:  2
       node   31, deallocated PAW data for type:  2
       node   32, deallocated PAW data for type:  1
       node   33, deallocated PAW data for type:  1
       node   34, deallocated PAW data for type:  1
       node   35, deallocated PAW data for type:  1
       node   36, deallocated PAW data for type:  1
       node   37, deallocated PAW data for type:  1
       node   38, deallocated PAW data for type:  1
       node   39, deallocated PAW data for type:  1
       node   40, deallocated PAW data for type:  1
       node   41, deallocated PAW data for type:  1
       node   42, deallocated PAW data for type:  1
       node   43, deallocated PAW data for type:  1
       node   44, deallocated PAW data for type:  1
       node   45, deallocated PAW data for type:  1
       node   46, deallocated PAW data for type:  1
       node   47, deallocated PAW data for type:  1
       node   48, deallocated PAW data for type:  1
       node   49, deallocated PAW data for type:  1
       node   50, deallocated PAW data for type:  1
       node   51, deallocated PAW data for type:  1
       node   52, deallocated PAW data for type:  1
       node   53, deallocated PAW data for type:  1
       node   54, deallocated PAW data for type:  1
       node   55, deallocated PAW data for type:  1
       node   56, deallocated PAW data for type:  1
       node   57, deallocated PAW data for type:  1
       node   58, deallocated PAW data for type:  1
       node   59, deallocated PAW data for type:  1
       node   60, deallocated PAW data for type:  1
       node   61, deallocated PAW data for type:  1
       node   62, deallocated PAW data for type:  1
       node   63, deallocated PAW data for type:  1
       node   64, deallocated PAW data for type:  1
       node   65, deallocated PAW data for type:  1
       node   66, deallocated PAW data for type:  1
       node   67, deallocated PAW data for type:  1
       node   68, deallocated PAW data for type:  1
       node   69, deallocated PAW data for type:  1
       node   70, deallocated PAW data for type:  1
       node   71, deallocated PAW data for type:  1
       node   72, deallocated PAW data for type:  1
       node   73, deallocated PAW data for type:  1
       node   74, deallocated PAW data for type:  1
       node   75, deallocated PAW data for type:  1
       node   76, deallocated PAW data for type:  1
       node   77, deallocated PAW data for type:  1
       node   78, deallocated PAW data for type:  1
       node   79, deallocated PAW data for type:  1
       node   80, deallocated PAW data for type:  1
       node   81, deallocated PAW data for type:  1
       node   82, deallocated PAW data for type:  1
       node   83, deallocated PAW data for type:  1
       node   84, deallocated PAW data for type:  1
       node   85, deallocated PAW data for type:  1
       node   86, deallocated PAW data for type:  1
       node   87, deallocated PAW data for type:  1
       node   88, deallocated PAW data for type:  1
       node   89, deallocated PAW data for type:  1
       node   90, deallocated PAW data for type:  1
       node   91, deallocated PAW data for type:  1
       node   92, deallocated PAW data for type:  1
       node   93, deallocated PAW data for type:  1
       node   94, deallocated PAW data for type:  1
       node   95, deallocated PAW data for type:  1

     total cpu time spent up to now is       25.5 secs

     per-process dynamical memory:   235.5 Mb

     Self-consistent Calculation

     iteration #  1     ecut=    62.47 Ry     beta=0.33
     Davidson diagonalization with overlap
     ethr =  1.00E-02,  avg # of iterations = 12.0

     negative rho (up, down):  1.365E-03 0.000E+00


     -----------------------------------------------
     Non-local corr. energy    =       0.13508427 Ry
     -----------------------------------------------


     total cpu time spent up to now is       34.9 secs

     total energy              =     -44.94309689 Ry
     Harris-Foulkes estimate   =     -45.19627471 Ry
     estimated scf accuracy    <       0.53748277 Ry

     iteration #  2     ecut=    62.47 Ry     beta=0.33
     Davidson diagonalization with overlap
     ethr =  6.72E-03,  avg # of iterations =  1.0

     negative rho (up, down):  9.008E-04 0.000E+00


     -----------------------------------------------
     Non-local corr. energy    =       0.13562655 Ry
     -----------------------------------------------


     total cpu time spent up to now is       41.6 secs

     total energy              =     -44.98783800 Ry
     Harris-Foulkes estimate   =     -45.00618693 Ry
     estimated scf accuracy    <       0.04622961 Ry

     iteration #  3     ecut=    62.47 Ry     beta=0.33
     Davidson diagonalization with overlap
     ethr =  5.78E-04,  avg # of iterations =  6.0

     negative rho (up, down):  1.516E-03 0.000E+00


     -----------------------------------------------
     Non-local corr. energy    =       0.13504374 Ry
     -----------------------------------------------


     total cpu time spent up to now is       49.6 secs

     total energy              =     -45.00741295 Ry
     Harris-Foulkes estimate   =     -45.03618766 Ry
     estimated scf accuracy    <       0.04432611 Ry

     iteration #  4     ecut=    62.47 Ry     beta=0.33
     Davidson diagonalization with overlap
     ethr =  5.54E-04,  avg # of iterations =  3.0

     negative rho (up, down):  1.556E-03 0.000E+00


     -----------------------------------------------
     Non-local corr. energy    =       0.13631590 Ry
     -----------------------------------------------


     total cpu time spent up to now is       56.4 secs

     total energy              =     -45.01024384 Ry
     Harris-Foulkes estimate   =     -45.04360333 Ry
     estimated scf accuracy    <       0.06548146 Ry

     iteration #  5     ecut=    62.47 Ry     beta=0.33
     Davidson diagonalization with overlap
     ethr =  5.54E-04,  avg # of iterations =  3.0

     negative rho (up, down):  1.533E-03 0.000E+00


     -----------------------------------------------
     Non-local corr. energy    =       0.13630247 Ry
     -----------------------------------------------


     total cpu time spent up to now is       63.2 secs

     total energy              =     -45.01998259 Ry
     Harris-Foulkes estimate   =     -45.02001212 Ry
     estimated scf accuracy    <       0.00154244 Ry

     iteration #  6     ecut=    62.47 Ry     beta=0.33
     Davidson diagonalization with overlap
     ethr =  1.93E-05,  avg # of iterations = 14.0

     negative rho (up, down):  1.525E-03 0.000E+00


     -----------------------------------------------
     Non-local corr. energy    =       0.13622134 Ry
     -----------------------------------------------


     total cpu time spent up to now is       72.4 secs

     total energy              =     -45.02458856 Ry
     Harris-Foulkes estimate   =     -45.02482052 Ry
     estimated scf accuracy    <       0.00085066 Ry

     iteration #  7     ecut=    62.47 Ry     beta=0.33
     Davidson diagonalization with overlap
     ethr =  1.06E-05,  avg # of iterations =  1.0

     negative rho (up, down):  1.617E-03 0.000E+00


     -----------------------------------------------
     Non-local corr. energy    =       0.13611763 Ry
     -----------------------------------------------


     total cpu time spent up to now is       79.0 secs

     total energy              =     -45.02435685 Ry
     Harris-Foulkes estimate   =     -45.02460962 Ry
     estimated scf accuracy    <       0.00036353 Ry

     iteration #  8     ecut=    62.47 Ry     beta=0.33
     Davidson diagonalization with overlap
     ethr =  4.54E-06,  avg # of iterations =  3.0

     negative rho (up, down):  1.605E-03 0.000E+00


     -----------------------------------------------
     Non-local corr. energy    =       0.13612828 Ry
     -----------------------------------------------


     total cpu time spent up to now is       85.9 secs

     total energy              =     -45.02458070 Ry
     Harris-Foulkes estimate   =     -45.02467478 Ry
     estimated scf accuracy    <       0.00038671 Ry

     iteration #  9     ecut=    62.47 Ry     beta=0.33
     Davidson diagonalization with overlap
     ethr =  4.54E-06,  avg # of iterations =  1.0

     negative rho (up, down):  1.606E-03 0.000E+00


     -----------------------------------------------
     Non-local corr. energy    =       0.13613075 Ry
     -----------------------------------------------


     total cpu time spent up to now is       92.5 secs

     total energy              =     -45.02457403 Ry
     Harris-Foulkes estimate   =     -45.02458884 Ry
     estimated scf accuracy    <       0.00018685 Ry

     iteration # 10     ecut=    62.47 Ry     beta=0.33
     Davidson diagonalization with overlap
     ethr =  2.34E-06,  avg # of iterations =  1.0

     negative rho (up, down):  1.606E-03 0.000E+00


     -----------------------------------------------
     Non-local corr. energy    =       0.13613076 Ry
     -----------------------------------------------


     total cpu time spent up to now is       99.1 secs

     total energy              =     -45.02457568 Ry
     Harris-Foulkes estimate   =     -45.02458184 Ry
     estimated scf accuracy    <       0.00011297 Ry

     iteration # 11     ecut=    62.47 Ry     beta=0.33
     Davidson diagonalization with overlap
     ethr =  1.41E-06,  avg # of iterations =  1.0

     negative rho (up, down):  1.606E-03 0.000E+00


     -----------------------------------------------
     Non-local corr. energy    =       0.13613075 Ry
     -----------------------------------------------


     total cpu time spent up to now is      105.7 secs

     total energy              =     -45.02457875 Ry
     Harris-Foulkes estimate   =     -45.02457869 Ry
     estimated scf accuracy    <       0.00008679 Ry

     iteration # 12     ecut=    62.47 Ry     beta=0.33
     Davidson diagonalization with overlap
     ethr =  1.08E-06,  avg # of iterations =  1.0

     negative rho (up, down):  1.600E-03 0.000E+00


     -----------------------------------------------
     Non-local corr. energy    =       0.13614089 Ry
     -----------------------------------------------


     total cpu time spent up to now is      112.4 secs

     total energy              =     -45.02456533 Ry
     Harris-Foulkes estimate   =     -45.02458111 Ry
     estimated scf accuracy    <       0.00007399 Ry

     iteration # 13     ecut=    62.47 Ry     beta=0.33
     Davidson diagonalization with overlap
     ethr =  9.25E-07,  avg # of iterations =  1.0

     negative rho (up, down):  1.599E-03 0.000E+00


     -----------------------------------------------
     Non-local corr. energy    =       0.13614203 Ry
     -----------------------------------------------


     total cpu time spent up to now is      119.0 secs

     total energy              =     -45.02456681 Ry
     Harris-Foulkes estimate   =     -45.02456882 Ry
     estimated scf accuracy    <       0.00003186 Ry

     iteration # 14     ecut=    62.47 Ry     beta=0.33
     Davidson diagonalization with overlap
     ethr =  3.98E-07,  avg # of iterations =  3.0

     negative rho (up, down):  1.596E-03 0.000E+00


     -----------------------------------------------
     Non-local corr. energy    =       0.13614373 Ry
     -----------------------------------------------


     total cpu time spent up to now is      125.8 secs

     total energy              =     -45.02457319 Ry
     Harris-Foulkes estimate   =     -45.02457356 Ry
     estimated scf accuracy    <       0.00000697 Ry

     iteration # 15     ecut=    62.47 Ry     beta=0.33
     Davidson diagonalization with overlap
     ethr =  8.71E-08,  avg # of iterations =  3.0

     negative rho (up, down):  1.594E-03 0.000E+00


     -----------------------------------------------
     Non-local corr. energy    =       0.13614411 Ry
     -----------------------------------------------


     total cpu time spent up to now is      132.6 secs

     total energy              =     -45.02457354 Ry
     Harris-Foulkes estimate   =     -45.02457368 Ry
     estimated scf accuracy    <       0.00000440 Ry

     iteration # 16     ecut=    62.47 Ry     beta=0.33
     Davidson diagonalization with overlap
     ethr =  5.50E-08,  avg # of iterations =  1.0

     negative rho (up, down):  1.594E-03 0.000E+00


     -----------------------------------------------
     Non-local corr. energy    =       0.13614492 Ry
     -----------------------------------------------


     total cpu time spent up to now is      139.3 secs

     total energy              =     -45.02457321 Ry
     Harris-Foulkes estimate   =     -45.02457356 Ry
     estimated scf accuracy    <       0.00000386 Ry

     iteration # 17     ecut=    62.47 Ry     beta=0.33
     Davidson diagonalization with overlap
     ethr =  4.83E-08,  avg # of iterations =  1.0

     negative rho (up, down):  1.590E-03 0.000E+00


     -----------------------------------------------
     Non-local corr. energy    =       0.13614481 Ry
     -----------------------------------------------


     total cpu time spent up to now is      145.9 secs

     total energy              =     -45.02457349 Ry
     Harris-Foulkes estimate   =     -45.02457323 Ry
     estimated scf accuracy    <       0.00000309 Ry

     iteration # 18     ecut=    62.47 Ry     beta=0.33
     Davidson diagonalization with overlap
     ethr =  3.86E-08,  avg # of iterations =  1.0

     negative rho (up, down):  1.573E-03 0.000E+00


     -----------------------------------------------
     Non-local corr. energy    =       0.13614510 Ry
     -----------------------------------------------


     total cpu time spent up to now is      152.5 secs

     total energy              =     -45.02457456 Ry
     Harris-Foulkes estimate   =     -45.02457349 Ry
     estimated scf accuracy    <       0.00000298 Ry

     iteration # 19     ecut=    62.47 Ry     beta=0.33
     Davidson diagonalization with overlap
     ethr =  3.73E-08,  avg # of iterations =  1.0

     negative rho (up, down):  1.573E-03 0.000E+00


     -----------------------------------------------
     Non-local corr. energy    =       0.13614486 Ry
     -----------------------------------------------


     total cpu time spent up to now is      159.2 secs

     total energy              =     -45.02457469 Ry
     Harris-Foulkes estimate   =     -45.02457462 Ry
     estimated scf accuracy    <       0.00000218 Ry

     iteration # 20     ecut=    62.47 Ry     beta=0.33
     Davidson diagonalization with overlap
     ethr =  2.72E-08,  avg # of iterations =  1.0

     negative rho (up, down):  1.573E-03 0.000E+00


     -----------------------------------------------
     Non-local corr. energy    =       0.13614480 Ry
     -----------------------------------------------


     total cpu time spent up to now is      165.8 secs

     total energy              =     -45.02457477 Ry
     Harris-Foulkes estimate   =     -45.02457471 Ry
     estimated scf accuracy    <       0.00000242 Ry

     iteration # 21     ecut=    62.47 Ry     beta=0.33
     Davidson diagonalization with overlap
     ethr =  2.72E-08,  avg # of iterations =  1.0

     negative rho (up, down):  1.573E-03 0.000E+00


     -----------------------------------------------
     Non-local corr. energy    =       0.13614440 Ry
     -----------------------------------------------


     total cpu time spent up to now is      172.5 secs

     total energy              =     -45.02457519 Ry
     Harris-Foulkes estimate   =     -45.02457478 Ry
     estimated scf accuracy    <       0.00000278 Ry

     iteration # 22     ecut=    62.47 Ry     beta=0.33
     Davidson diagonalization with overlap
     ethr =  2.72E-08,  avg # of iterations =  1.0

     negative rho (up, down):  1.580E-03 0.000E+00


     -----------------------------------------------
     Non-local corr. energy    =       0.13614267 Ry
     -----------------------------------------------


     total cpu time spent up to now is      179.1 secs

     total energy              =     -45.02457569 Ry
     Harris-Foulkes estimate   =     -45.02457522 Ry
     estimated scf accuracy    <       0.00000399 Ry

     iteration # 23     ecut=    62.47 Ry     beta=0.33
     Davidson diagonalization with overlap
     ethr =  2.72E-08,  avg # of iterations =  1.0

     negative rho (up, down):  1.578E-03 0.000E+00


     -----------------------------------------------
     Non-local corr. energy    =       0.13614301 Ry
     -----------------------------------------------


     total cpu time spent up to now is      185.7 secs

     total energy              =     -45.02457555 Ry
     Harris-Foulkes estimate   =     -45.02457584 Ry
     estimated scf accuracy    <       0.00000718 Ry

     iteration # 24     ecut=    62.47 Ry     beta=0.33
     Davidson diagonalization with overlap
     ethr =  2.72E-08,  avg # of iterations =  1.0

     negative rho (up, down):  1.579E-03 0.000E+00


     -----------------------------------------------
     Non-local corr. energy    =       0.13614284 Ry
     -----------------------------------------------


     total cpu time spent up to now is      192.4 secs

     total energy              =     -45.02457460 Ry
     Harris-Foulkes estimate   =     -45.02457559 Ry
     estimated scf accuracy    <       0.00000626 Ry

     iteration # 25     ecut=    62.47 Ry     beta=0.33
     Davidson diagonalization with overlap
     ethr =  2.72E-08,  avg # of iterations =  1.0

     negative rho (up, down):  1.576E-03 0.000E+00


     -----------------------------------------------
     Non-local corr. energy    =       0.13614213 Ry
     -----------------------------------------------


     total cpu time spent up to now is      199.0 secs

     total energy              =     -45.02457418 Ry
     Harris-Foulkes estimate   =     -45.02457462 Ry
     estimated scf accuracy    <       0.00000497 Ry

     iteration # 26     ecut=    62.47 Ry     beta=0.33
     Davidson diagonalization with overlap
     ethr =  2.72E-08,  avg # of iterations =  1.0

     negative rho (up, down):  1.561E-03 0.000E+00


     -----------------------------------------------
     Non-local corr. energy    =       0.13614458 Ry
     -----------------------------------------------


     total cpu time spent up to now is      205.6 secs

     total energy              =     -45.02457263 Ry
     Harris-Foulkes estimate   =     -45.02457423 Ry
     estimated scf accuracy    <       0.00000348 Ry

     iteration # 27     ecut=    62.47 Ry     beta=0.33
     Davidson diagonalization with overlap
     ethr =  2.72E-08,  avg # of iterations =  3.0

     negative rho (up, down):  1.571E-03 0.000E+00


     -----------------------------------------------
     Non-local corr. energy    =       0.13614095 Ry
     -----------------------------------------------


     total cpu time spent up to now is      212.5 secs

     total energy              =     -45.02457244 Ry
     Harris-Foulkes estimate   =     -45.02457510 Ry
     estimated scf accuracy    <       0.00000363 Ry

     iteration # 28     ecut=    62.47 Ry     beta=0.33
     Davidson diagonalization with overlap
     ethr =  2.72E-08,  avg # of iterations =  3.0

     negative rho (up, down):  1.573E-03 0.000E+00


     -----------------------------------------------
     Non-local corr. energy    =       0.13614303 Ry
     -----------------------------------------------


     total cpu time spent up to now is      219.3 secs

     total energy              =     -45.02457353 Ry
     Harris-Foulkes estimate   =     -45.02457384 Ry
     estimated scf accuracy    <       0.00000094 Ry

     iteration # 29     ecut=    62.47 Ry     beta=0.33
     Davidson diagonalization with overlap
     ethr =  1.18E-08,  avg # of iterations =  3.0

     negative rho (up, down):  1.568E-03 0.000E+00


     -----------------------------------------------
     Non-local corr. energy    =       0.13614339 Ry
     -----------------------------------------------


     total cpu time spent up to now is      226.1 secs

     total energy              =     -45.02457374 Ry
     Harris-Foulkes estimate   =     -45.02457375 Ry
     estimated scf accuracy    <       0.00000069 Ry

     iteration # 30     ecut=    62.47 Ry     beta=0.33
     Davidson diagonalization with overlap
     ethr =  8.69E-09,  avg # of iterations =  1.0

     negative rho (up, down):  1.569E-03 0.000E+00


     -----------------------------------------------
     Non-local corr. energy    =       0.13614479 Ry
     -----------------------------------------------


     total cpu time spent up to now is      232.8 secs

     total energy              =     -45.02457371 Ry
     Harris-Foulkes estimate   =     -45.02457379 Ry
     estimated scf accuracy    <       0.00000017 Ry

     iteration # 31     ecut=    62.47 Ry     beta=0.33
     Davidson diagonalization with overlap
     ethr =  2.18E-09,  avg # of iterations =  3.0

     negative rho (up, down):  1.569E-03 0.000E+00


     -----------------------------------------------
     Non-local corr. energy    =       0.13614555 Ry
     -----------------------------------------------


     total cpu time spent up to now is      239.6 secs

     total energy              =     -45.02457377 Ry
     Harris-Foulkes estimate   =     -45.02457377 Ry
     estimated scf accuracy    <       0.00000007 Ry

     iteration # 32     ecut=    62.47 Ry     beta=0.33
     Davidson diagonalization with overlap
     ethr =  8.86E-10,  avg # of iterations =  3.0

     negative rho (up, down):  1.569E-03 0.000E+00


     -----------------------------------------------
     Non-local corr. energy    =       0.13614526 Ry
     -----------------------------------------------


     total cpu time spent up to now is      246.4 secs

     total energy              =     -45.02457380 Ry
     Harris-Foulkes estimate   =     -45.02457379 Ry
     estimated scf accuracy    <          7.7E-09 Ry

     iteration # 33     ecut=    62.47 Ry     beta=0.33
     Davidson diagonalization with overlap
     ethr =  9.67E-11,  avg # of iterations =  3.0

     negative rho (up, down):  1.570E-03 0.000E+00


     -----------------------------------------------
     Non-local corr. energy    =       0.13614454 Ry
     -----------------------------------------------


     total cpu time spent up to now is      253.2 secs

     total energy              =     -45.02457376 Ry
     Harris-Foulkes estimate   =     -45.02457380 Ry
     estimated scf accuracy    <          5.3E-09 Ry

     iteration # 34     ecut=    62.47 Ry     beta=0.33
     Davidson diagonalization with overlap
     ethr =  6.57E-11,  avg # of iterations =  4.0

     negative rho (up, down):  1.569E-03 0.000E+00


     -----------------------------------------------
     Non-local corr. energy    =       0.13614493 Ry
     -----------------------------------------------


     total cpu time spent up to now is      260.2 secs

     total energy              =     -45.02457378 Ry
     Harris-Foulkes estimate   =     -45.02457380 Ry
     estimated scf accuracy    <       0.00000022 Ry

     iteration # 35     ecut=    62.47 Ry     beta=0.33
     Davidson diagonalization with overlap
     ethr =  6.57E-11,  avg # of iterations =  3.0

     negative rho (up, down):  1.569E-03 0.000E+00


     -----------------------------------------------
     Non-local corr. energy    =       0.13614517 Ry
     -----------------------------------------------


     total cpu time spent up to now is      267.1 secs

     total energy              =     -45.02457379 Ry
     Harris-Foulkes estimate   =     -45.02457379 Ry
     estimated scf accuracy    <       0.00000007 Ry

     iteration # 36     ecut=    62.47 Ry     beta=0.33
     Davidson diagonalization with overlap
     ethr =  6.57E-11,  avg # of iterations =  3.0

     negative rho (up, down):  1.568E-03 0.000E+00


     -----------------------------------------------
     Non-local corr. energy    =       0.13614547 Ry
     -----------------------------------------------


     total cpu time spent up to now is      273.9 secs

     total energy              =     -45.02457381 Ry
     Harris-Foulkes estimate   =     -45.02457379 Ry
     estimated scf accuracy    <       0.00000002 Ry

     iteration # 37     ecut=    62.47 Ry     beta=0.33
     Davidson diagonalization with overlap
     ethr =  6.57E-11,  avg # of iterations =  3.0

     negative rho (up, down):  1.569E-03 0.000E+00


     -----------------------------------------------
     Non-local corr. energy    =       0.13614543 Ry
     -----------------------------------------------


     total cpu time spent up to now is      280.8 secs

     total energy              =     -45.02457381 Ry
     Harris-Foulkes estimate   =     -45.02457382 Ry
     estimated scf accuracy    <          4.7E-09 Ry

     iteration # 38     ecut=    62.47 Ry     beta=0.33
     Davidson diagonalization with overlap
     ethr =  5.86E-11,  avg # of iterations =  1.0

     negative rho (up, down):  1.569E-03 0.000E+00


     -----------------------------------------------
     Non-local corr. energy    =       0.13614545 Ry
     -----------------------------------------------


     total cpu time spent up to now is      287.4 secs

     total energy              =     -45.02457381 Ry
     Harris-Foulkes estimate   =     -45.02457381 Ry
     estimated scf accuracy    <          2.1E-09 Ry

     iteration # 39     ecut=    62.47 Ry     beta=0.33
     Davidson diagonalization with overlap
     ethr =  2.62E-11,  avg # of iterations =  1.0

     negative rho (up, down):  1.569E-03 0.000E+00


     -----------------------------------------------
     Non-local corr. energy    =       0.13614539 Ry
     -----------------------------------------------


     total cpu time spent up to now is      294.0 secs

     total energy              =     -45.02457380 Ry
     Harris-Foulkes estimate   =     -45.02457381 Ry
     estimated scf accuracy    <          1.0E-09 Ry

     iteration # 40     ecut=    62.47 Ry     beta=0.33
     Davidson diagonalization with overlap
     ethr =  1.26E-11,  avg # of iterations =  3.0

     negative rho (up, down):  1.569E-03 0.000E+00


     -----------------------------------------------
     Non-local corr. energy    =       0.13614538 Ry
     -----------------------------------------------


     total cpu time spent up to now is      300.9 secs

     total energy              =     -45.02457380 Ry
     Harris-Foulkes estimate   =     -45.02457380 Ry
     estimated scf accuracy    <          1.8E-09 Ry

     iteration # 41     ecut=    62.47 Ry     beta=0.33
     Davidson diagonalization with overlap
     ethr =  1.26E-11,  avg # of iterations =  1.0

     negative rho (up, down):  1.569E-03 0.000E+00


     -----------------------------------------------
     Non-local corr. energy    =       0.13614539 Ry
     -----------------------------------------------


     total cpu time spent up to now is      307.5 secs

     total energy              =     -45.02457380 Ry
     Harris-Foulkes estimate   =     -45.02457380 Ry
     estimated scf accuracy    <          1.9E-09 Ry

     iteration # 42     ecut=    62.47 Ry     beta=0.33
     Davidson diagonalization with overlap
     ethr =  1.26E-11,  avg # of iterations =  1.0

     negative rho (up, down):  1.569E-03 0.000E+00


     -----------------------------------------------
     Non-local corr. energy    =       0.13614542 Ry
     -----------------------------------------------


     total cpu time spent up to now is      314.2 secs

     total energy              =     -45.02457381 Ry
     Harris-Foulkes estimate   =     -45.02457380 Ry
     estimated scf accuracy    <          2.0E-09 Ry

     iteration # 43     ecut=    62.47 Ry     beta=0.33
     Davidson diagonalization with overlap
     ethr =  1.26E-11,  avg # of iterations =  3.0

     negative rho (up, down):  1.569E-03 0.000E+00


     -----------------------------------------------
     Non-local corr. energy    =       0.13614542 Ry
     -----------------------------------------------


     total cpu time spent up to now is      321.0 secs

     total energy              =     -45.02457381 Ry
     Harris-Foulkes estimate   =     -45.02457381 Ry
     estimated scf accuracy    <          1.5E-10 Ry

     iteration # 44     ecut=    62.47 Ry     beta=0.33
     Davidson diagonalization with overlap
     ethr =  1.81E-12,  avg # of iterations =  3.0

     negative rho (up, down):  1.569E-03 0.000E+00


     -----------------------------------------------
     Non-local corr. energy    =       0.13614545 Ry
     -----------------------------------------------


     total cpu time spent up to now is      327.8 secs

     total energy              =     -45.02457381 Ry
     Harris-Foulkes estimate   =     -45.02457381 Ry
     estimated scf accuracy    <          2.1E-11 Ry

     iteration # 45     ecut=    62.47 Ry     beta=0.33
     Davidson diagonalization with overlap
     ethr =  2.59E-13,  avg # of iterations =  3.0

     negative rho (up, down):  1.569E-03 0.000E+00


     -----------------------------------------------
     Non-local corr. energy    =       0.13614543 Ry
     -----------------------------------------------


     total cpu time spent up to now is      334.7 secs

     total energy              =     -45.02457380 Ry
     Harris-Foulkes estimate   =     -45.02457381 Ry
     estimated scf accuracy    <          1.2E-10 Ry

     iteration # 46     ecut=    62.47 Ry     beta=0.33
     Davidson diagonalization with overlap
     ethr =  2.59E-13,  avg # of iterations =  3.0

     negative rho (up, down):  1.569E-03 0.000E+00


     -----------------------------------------------
     Non-local corr. energy    =       0.13614544 Ry
     -----------------------------------------------


     total cpu time spent up to now is      341.5 secs

     total energy              =     -45.02457380 Ry
     Harris-Foulkes estimate   =     -45.02457380 Ry
     estimated scf accuracy    <          6.6E-11 Ry

     iteration # 47     ecut=    62.47 Ry     beta=0.33
     Davidson diagonalization with overlap
     ethr =  2.59E-13,  avg # of iterations =  1.0

     negative rho (up, down):  1.569E-03 0.000E+00


     -----------------------------------------------
     Non-local corr. energy    =       0.13614545 Ry
     -----------------------------------------------


     total cpu time spent up to now is      348.2 secs

     total energy              =     -45.02457380 Ry
     Harris-Foulkes estimate   =     -45.02457380 Ry
     estimated scf accuracy    <          3.4E-11 Ry

     iteration # 48     ecut=    62.47 Ry     beta=0.33
     Davidson diagonalization with overlap
     ethr =  2.59E-13,  avg # of iterations =  3.0

     negative rho (up, down):  1.569E-03 0.000E+00


     -----------------------------------------------
     Non-local corr. energy    =       0.13614545 Ry
     -----------------------------------------------


     total cpu time spent up to now is      354.9 secs

     End of self-consistent calculation

          k = 0.0000 0.0000 0.0000 (450127 PWs)   bands (ev):

   -25.5713 -13.5272  -9.6694  -7.6471  -1.4837  -0.1536  -0.0113   0.1332
     0.1427   0.1858   0.2112   0.3017   0.3114   0.4476   0.4671   0.5454
     0.5465   0.5495   0.5598   0.5767   0.5871   0.5880   0.5882   0.7532
     0.7772   0.8641   0.8800   0.9201   0.9277   0.9421   0.9551   1.0744
     1.1125   1.2058   1.2237   1.2630   1.2926   1.3834   1.4167   1.4985

     occupation numbers 
     1.0000   1.0000   1.0000   1.0000   0.0000   0.0000   0.0000   0.0000
     0.0000   0.0000   0.0000   0.0000   0.0000   0.0000   0.0000   0.0000
     0.0000   0.0000   0.0000   0.0000   0.0000   0.0000   0.0000   0.0000
     0.0000   0.0000   0.0000   0.0000   0.0000   0.0000   0.0000   0.0000
     0.0000   0.0000   0.0000   0.0000   0.0000   0.0000   0.0000   0.0000

     highest occupied, lowest unoccupied level (ev):    -7.6471   -1.4837

!    total energy              =     -45.02457380 Ry
     Harris-Foulkes estimate   =     -45.02457380 Ry
     estimated scf accuracy    <          1.6E-12 Ry

     total all-electron energy =      -153.871456 Ry

     The total energy is the sum of the following terms:

     one-electron contribution =     -68.76511281 Ry
     hartree contribution      =      36.07190042 Ry
     xc contribution           =      -9.22141042 Ry
     ewald contribution        =       7.11582552 Ry
     one-center paw contrib.   =     -10.22577651 Ry
      -> PAW hartree energy AE =      27.81962516 Ry
      -> PAW hartree energy PS =     -27.78498076 Ry
      -> PAW xc energy AE      =     -17.89212096 Ry
      -> PAW xc energy PS      =       7.63294213 Ry
      -> total E_H with PAW    =      36.10654482 Ry
      -> total E_XC with PAW   =     -19.48058925 Ry

     convergence has been achieved in  48 iterations

     negative rho (up, down):  1.569E-03 0.000E+00


     -----------------------------------------------
     Non-local corr. energy    =       0.13614545 Ry
     -----------------------------------------------


     Forces acting on atoms (cartesian axes, Ry/au):

     atom    1 type  1   force =     0.00000000    0.01156137    0.00652385
     atom    2 type  2   force =     0.00000000   -0.01268082   -0.00765785
     atom    3 type  2   force =     0.00000000    0.00111946    0.00113612
     The non-local contrib.  to forces
     atom    1 type  1   force =     0.00000000    0.00216315    2.50936205
     atom    2 type  2   force =     0.00000000   -0.09030911   -0.06281823
     atom    3 type  2   force =     0.00000000    0.09248535   -0.06532538
     The ionic contribution  to forces
     atom    1 type  1   force =     0.00000000    0.03250516   -4.30443648
     atom    2 type  2   force =     0.00000000    3.02858060    2.12591788
     atom    3 type  2   force =     0.00000000   -3.06108576    2.17851859
     The local contribution  to forces
     atom    1 type  1   force =    -0.00001460   -0.02303913    1.82578379
     atom    2 type  2   force =    -0.00000126   -2.95095239   -2.07075781
     atom    3 type  2   force =    -0.00000128    2.96972024   -2.11205740
     The core correction contribution to forces
     atom    1 type  1   force =     0.00000014   -0.00006751   -0.02418732
     atom    2 type  2   force =     0.00000000    0.00000000    0.00000000
     atom    3 type  2   force =     0.00000000    0.00000000    0.00000000
     The Hubbard contrib.    to forces
     atom    1 type  1   force =     0.00000000    0.00000000    0.00000000
     atom    2 type  2   force =     0.00000000    0.00000000    0.00000000
     atom    3 type  2   force =     0.00000000    0.00000000    0.00000000
     The SCF correction term to forces
     atom    1 type  1   force =     0.00000000   -0.00000016    0.00000182
     atom    2 type  2   force =     0.00000000    0.00000022    0.00000032
     atom    3 type  2   force =     0.00000000   -0.00000022    0.00000031

     Total force =     0.019955     Total SCF correction =     0.000002

     Writing output data file H2O_IR.save
 
     init_run     :     44.59s CPU     23.86s WALL (       1 calls)
     electrons    :    643.70s CPU    330.58s WALL (       1 calls)
     forces       :     15.67s CPU      7.57s WALL (       1 calls)

     Called by init_run:
     wfcinit      :      0.70s CPU      0.39s WALL (       1 calls)
     wfcinit:atom :      0.00s CPU      0.00s WALL (       1 calls)
     wfcinit:wfcr :      0.66s CPU      0.36s WALL (       1 calls)
     potinit      :     14.10s CPU      7.06s WALL (       1 calls)

     Called by electrons:
     c_bands      :     89.86s CPU     46.62s WALL (      48 calls)
     sum_band     :     40.82s CPU     22.08s WALL (      48 calls)
     v_of_rho     :    491.40s CPU    250.62s WALL (      49 calls)
     v_h          :      8.19s CPU      3.25s WALL (      49 calls)
     v_xc         :    493.23s CPU    252.39s WALL (      50 calls)
     newd         :     10.47s CPU      6.96s WALL (      49 calls)
     PAW_pot      :      2.73s CPU      1.71s WALL (      49 calls)
     mix_rho      :      9.98s CPU      4.84s WALL (      48 calls)

     Called by c_bands:
     init_us_2    :      0.08s CPU      0.08s WALL (      97 calls)
     cegterg      :     89.74s CPU     46.49s WALL (      48 calls)

     Called by sum_band:
     sum_band:bec :      0.00s CPU      0.00s WALL (      48 calls)
     addusdens    :      8.88s CPU      3.94s WALL (      48 calls)

     Called by *egterg:
     h_psi        :     63.12s CPU     32.65s WALL (     169 calls)
     s_psi        :      0.04s CPU      0.04s WALL (     169 calls)
     g_psi        :      0.02s CPU      0.02s WALL (     120 calls)
     cdiaghg      :      9.66s CPU      5.40s WALL (     168 calls)
     cegterg:over :      3.77s CPU      1.73s WALL (     120 calls)
     cegterg:upda :      0.62s CPU      0.62s WALL (     120 calls)
     cegterg:last :      0.27s CPU      0.27s WALL (      52 calls)
     cdiaghg:chol :      0.16s CPU      0.16s WALL (     168 calls)
     cdiaghg:inve :      0.11s CPU      0.11s WALL (     168 calls)
     cdiaghg:para :      0.13s CPU      0.13s WALL (     336 calls)

     Called by h_psi:
     h_psi:pot    :     63.06s CPU     32.59s WALL (     169 calls)
     h_psi:calbec :      0.84s CPU      0.13s WALL (     169 calls)
     vloc_psi     :     62.17s CPU     32.42s WALL (     169 calls)
     add_vuspsi   :      0.04s CPU      0.04s WALL (     169 calls)

     General routines
     calbec       :      0.90s CPU      0.19s WALL (     221 calls)
     fft          :    264.37s CPU    131.18s WALL (    3291 calls)
     ffts         :      2.72s CPU      0.68s WALL (      97 calls)
     fftw         :     65.85s CPU     35.34s WALL (   10896 calls)
     interpolate  :      8.66s CPU      4.59s WALL (      97 calls)
 
     Parallel routines
     fft_scatter  :    207.10s CPU    105.50s WALL (   14284 calls)

     PAW routines
     PAW_pot      :      2.73s CPU      1.71s WALL (      49 calls)
     PAW_symme    :      0.01s CPU      0.01s WALL (      97 calls)
 
     PWSCF        : 11m50.63s CPU     6m 7.16s WALL

 
   This run was terminated on:  14:23:36   9Feb2026            

=------------------------------------------------------------------------------=
   JOB DONE.
=------------------------------------------------------------------------------=
