
     Program PWSCF v.6.1 starts on  9Feb2026 at 14:35:54 

     This program is part of the open-source Quantum ESPRESSO suite
     for quantum simulation of materials; please cite
         "P. Giannozzi et al., J. Phys.:Condens. Matter 21 395502 (2009);
          URL http://www.quantum-espresso.org", 
     in publications or presentations arising from this work. More details at
     http://www.quantum-espresso.org/quote

     Parallel version (MPI & OpenMP), running on     192 processor cores
     Number of MPI processes:                96
     Threads/MPI process:                     2
     R & G space division:  proc/nbgrp/npool/nimage =      96
     Reading input from espresso.pwi
Warning: card &IONS ignored
Warning: card    ION_DYNAMICS     = 'BFGS' ignored
Warning: card / ignored
Warning: card &CELL ignored
Warning: card / ignored
Warning: card &FCP ignored
Warning: card / ignored
Warning: card &RISM ignored
Warning: card / ignored

     Current dimensions of program PWSCF are:
     Max number of different atomic species (ntypx) = 10
     Max number of k-points (npk) =  40000
     Max angular momentum in pseudopotentials (lmaxx) =  3

     IMPORTANT: XC functional enforced from input :
     Exchange-correlation      = VDW-DF2 ( 1  4 13  0 2 0)
     Any further DFT definition will be discarded
     Please, verify this is what you really want

               file O.pbe-n-kjpaw_psl.1.0.0.UPF: wavefunction(s)  2S 2P renormalized
               file H.pbe-kjpaw_psl.1.0.0.UPF: wavefunction(s)  1S renormalized

     Subspace diagonalization in iterative solution of the eigenvalue problem:
     one sub-group per band group will be used
     ELPA distributed-memory algorithm (size of sub-group:  6*  6 procs)

 
     Parallelization info
     --------------------
     sticks:   dense  smooth     PW     G-vecs:    dense   smooth      PW
     Min         740     296     74               148294    37508    4688
     Max         741     297     76               148300    37516    4690
     Sum       71041   28417   7129             14236565  3601159  450127
 


     bravais-lattice index     =            0
     lattice parameter (alat)  =      37.7945  a.u.
     unit-cell volume          =   53986.6738 (a.u.)^3
     number of atoms/cell      =            3
     number of atomic types    =            2
     number of electrons       =         8.00
     number of Kohn-Sham states=           40
     kinetic-energy cutoff     =      62.4738  Ry
     charge density cutoff     =     624.7385  Ry
     convergence threshold     =      7.3E-12
     mixing beta               =       0.3333
     number of iterations used =           12  plain     mixing
     Exchange-correlation      = VDW-DF2 ( 1  4 13  0 2 0)

     Effective Screening Medium Method
     =================================
     Boundary Conditions: Vacuum-Slab-Vacuum
     total charge in unit cell        =   0.0000
     grid points for fit at edges     =        4 
 

     celldm(1)=  37.794522  celldm(2)=   0.000000  celldm(3)=   0.000000
     celldm(4)=   0.000000  celldm(5)=   0.000000  celldm(6)=   0.000000

     crystal axes: (cart. coord. in units of alat)
               a(1) = (   1.000000   0.000000   0.000000 )  
               a(2) = (   0.000000   1.000000   0.000000 )  
               a(3) = (   0.000000   0.000000   1.000000 )  

     reciprocal axes: (cart. coord. in units 2 pi/alat)
               b(1) = (  1.000000  0.000000  0.000000 )  
               b(2) = (  0.000000  1.000000  0.000000 )  
               b(3) = (  0.000000  0.000000  1.000000 )  


     PseudoPot. # 1 for  O read from file:
     /work/gf93/f93007/QE/pseudo/O.pbe-n-kjpaw_psl.1.0.0.UPF
     MD5 check sum: c61d840054b6bba219e553541e327118
     Pseudo is Projector augmented-wave + core cor, Zval =  6.0
     Generated using "atomic" code by A. Dal Corso  v.6.1 svn rev. 13369
     Shape of augmentation charge: PSQ
     Using radial grid of 1095 points,  4 beta functions with: 
                l(1) =   0
                l(2) =   0
                l(3) =   1
                l(4) =   1
     Q(r) pseudized with 0 coefficients 


     PseudoPot. # 2 for  H read from file:
     /work/gf93/f93007/QE/pseudo/H.pbe-kjpaw_psl.1.0.0.UPF
     MD5 check sum: 29603ce6b94be0cf73e39cbb1f958d8e
     Pseudo is Projector augmented-wave, Zval =  1.0
     Generated using "atomic" code by A. Dal Corso  v.6.1 svn rev. 13369
     Shape of augmentation charge: PSQ
     Using radial grid of  929 points,  2 beta functions with: 
                l(1) =   0
                l(2) =   0
     Q(r) pseudized with 0 coefficients 


     vdW kernel table read from file vdW_kernel_table
     MD5 check sum: 6d69797d2e858e93e031fb7d16d30e50

     atomic species   valence    mass     pseudopotential
        O              6.00    15.99900      O( 1.00)
        H              1.00     1.00800      H( 1.00)

     No symmetry found


                                    s                        frac. trans.

      isym =  1     identity                                     

 cryst.   s( 1) = (     1          0          0      )
                  (     0          1          0      )
                  (     0          0          1      )

 cart.    s( 1) = (  1.0000000  0.0000000  0.0000000 )
                  (  0.0000000  1.0000000  0.0000000 )
                  (  0.0000000  0.0000000  1.0000000 )


   Cartesian axes

     site n.     atom                  positions (alat units)
         1           O   tau(   1) = (   0.5000000   0.5000000   0.0001590  )
         2           H   tau(   2) = (   0.5000000   0.5384535   0.0297364  )
         3           H   tau(   3) = (   0.4995000   0.4615465   0.0297364  )

   Crystallographic axes

     site n.     atom                  positions (cryst. coord.)
         1           O   tau(   1) = (  0.5000000  0.5000000  0.0001590  )
         2           H   tau(   2) = (  0.5000000  0.5384535  0.0297364  )
         3           H   tau(   3) = (  0.4995000  0.4615465  0.0297364  )

     number of k points=     1
                       cart. coord. in units 2pi/alat
        k(    1) = (   0.0000000   0.0000000   0.0000000), wk =   2.0000000

                       cryst. coord.
        k(    1) = (   0.0000000   0.0000000   0.0000000), wk =   2.0000000

     Dense  grid: 14236565 G-vectors     FFT dimensions: ( 320, 320, 320)

     Smooth grid:  3601159 G-vectors     FFT dimensions: ( 192, 192, 192)

     Estimated max dynamical RAM per process >     488.77MB

     Estimated total allocated dynamical RAM >   46922.27MB

     Initial potential from superposition of free atoms
     Check: negative starting charge=   -0.001152

     starting charge    7.99998, renormalised to    8.00000

     negative rho (up, down):  1.152E-03 0.000E+00


     %%%%%%%%%%%%%%%%%%%%%%%%%%%%%%%%%%%%%%%%%%%%%%%%%%%%%%%%%%%%%%%%%%%%%%%%
     %                                                                      %
     % You are using vdW-DF, which was implemented by the Thonhauser group. %
     % Please cite the following two papers that made this development      %
     % possible and the two reviews that describe the various versions:     %
     %                                                                      %
     %   T. Thonhauser et al., PRL 115, 136402 (2015).                      %
     %   T. Thonhauser et al., PRB 76, 125112 (2007).                       %
     %   K. Berland et al., Rep. Prog. Phys. 78, 066501 (2015).             %
     %   D.C. Langreth et al., J. Phys.: Condens. Matter 21, 084203 (2009). %
     %                                                                      %
     %                                                                      %
     % If you are calculating the stress with vdW-DF, please also cite:     %
     %                                                                      %
     %   R. Sabatini et al., J. Phys.: Condens. Matter 24, 424209 (2012).   %
     %                                                                      %
     %%%%%%%%%%%%%%%%%%%%%%%%%%%%%%%%%%%%%%%%%%%%%%%%%%%%%%%%%%%%%%%%%%%%%%%%


     Carrying out vdW-DF run using the following parameters:
     Nqs    =  20  Npoints =  1024  r_max =  100.000
     q_mesh =  0.00001000  0.04494208  0.09755937  0.15916263
               0.23128650  0.31572767  0.41458969  0.53033537
               0.66584808  0.82450364  1.01025438  1.22772762
               1.48234092  1.78043706  2.12944203  2.53805004
               3.01644009  3.57652955  4.23227104  5.00000000


     -----------------------------------------------
     Non-local corr. energy    =       0.13358247 Ry
     -----------------------------------------------

     Starting wfc are    6 randomized atomic wfcs +   34 random wfc
     Checking if some PAW data can be deallocated... 
       node    0, deallocated PAW data for type:  2
       node    1, deallocated PAW data for type:  2
       node    2, deallocated PAW data for type:  2
       node    3, deallocated PAW data for type:  2
       node    4, deallocated PAW data for type:  2
       node    5, deallocated PAW data for type:  2
       node    6, deallocated PAW data for type:  2
       node    7, deallocated PAW data for type:  2
       node    8, deallocated PAW data for type:  2
       node    9, deallocated PAW data for type:  2
       node   10, deallocated PAW data for type:  2
       node   11, deallocated PAW data for type:  2
       node   12, deallocated PAW data for type:  2
       node   13, deallocated PAW data for type:  2
       node   14, deallocated PAW data for type:  2
       node   15, deallocated PAW data for type:  2
       node   16, deallocated PAW data for type:  2
       node   17, deallocated PAW data for type:  2
       node   18, deallocated PAW data for type:  2
       node   19, deallocated PAW data for type:  2
       node   20, deallocated PAW data for type:  2
       node   21, deallocated PAW data for type:  2
       node   22, deallocated PAW data for type:  2
       node   23, deallocated PAW data for type:  2
       node   24, deallocated PAW data for type:  2
       node   25, deallocated PAW data for type:  2
       node   26, deallocated PAW data for type:  2
       node   27, deallocated PAW data for type:  2
       node   28, deallocated PAW data for type:  2
       node   29, deallocated PAW data for type:  2
       node   30, deallocated PAW data for type:  2
       node   31, deallocated PAW data for type:  2
       node   32, deallocated PAW data for type:  1
       node   33, deallocated PAW data for type:  1
       node   34, deallocated PAW data for type:  1
       node   35, deallocated PAW data for type:  1
       node   36, deallocated PAW data for type:  1
       node   37, deallocated PAW data for type:  1
       node   38, deallocated PAW data for type:  1
       node   39, deallocated PAW data for type:  1
       node   40, deallocated PAW data for type:  1
       node   41, deallocated PAW data for type:  1
       node   42, deallocated PAW data for type:  1
       node   43, deallocated PAW data for type:  1
       node   44, deallocated PAW data for type:  1
       node   45, deallocated PAW data for type:  1
       node   46, deallocated PAW data for type:  1
       node   47, deallocated PAW data for type:  1
       node   48, deallocated PAW data for type:  1
       node   49, deallocated PAW data for type:  1
       node   50, deallocated PAW data for type:  1
       node   51, deallocated PAW data for type:  1
       node   52, deallocated PAW data for type:  1
       node   53, deallocated PAW data for type:  1
       node   54, deallocated PAW data for type:  1
       node   55, deallocated PAW data for type:  1
       node   56, deallocated PAW data for type:  1
       node   57, deallocated PAW data for type:  1
       node   58, deallocated PAW data for type:  1
       node   59, deallocated PAW data for type:  1
       node   60, deallocated PAW data for type:  1
       node   61, deallocated PAW data for type:  1
       node   62, deallocated PAW data for type:  1
       node   63, deallocated PAW data for type:  1
       node   64, deallocated PAW data for type:  1
       node   65, deallocated PAW data for type:  1
       node   66, deallocated PAW data for type:  1
       node   67, deallocated PAW data for type:  1
       node   68, deallocated PAW data for type:  1
       node   69, deallocated PAW data for type:  1
       node   70, deallocated PAW data for type:  1
       node   71, deallocated PAW data for type:  1
       node   72, deallocated PAW data for type:  1
       node   73, deallocated PAW data for type:  1
       node   74, deallocated PAW data for type:  1
       node   75, deallocated PAW data for type:  1
       node   76, deallocated PAW data for type:  1
       node   77, deallocated PAW data for type:  1
       node   78, deallocated PAW data for type:  1
       node   79, deallocated PAW data for type:  1
       node   80, deallocated PAW data for type:  1
       node   81, deallocated PAW data for type:  1
       node   82, deallocated PAW data for type:  1
       node   83, deallocated PAW data for type:  1
       node   84, deallocated PAW data for type:  1
       node   85, deallocated PAW data for type:  1
       node   86, deallocated PAW data for type:  1
       node   87, deallocated PAW data for type:  1
       node   88, deallocated PAW data for type:  1
       node   89, deallocated PAW data for type:  1
       node   90, deallocated PAW data for type:  1
       node   91, deallocated PAW data for type:  1
       node   92, deallocated PAW data for type:  1
       node   93, deallocated PAW data for type:  1
       node   94, deallocated PAW data for type:  1
       node   95, deallocated PAW data for type:  1

     total cpu time spent up to now is       25.3 secs

     per-process dynamical memory:   213.0 Mb

     Self-consistent Calculation

     iteration #  1     ecut=    62.47 Ry     beta=0.33
     Davidson diagonalization with overlap
     ethr =  1.00E-02,  avg # of iterations = 12.0

     negative rho (up, down):  1.366E-03 0.000E+00


     -----------------------------------------------
     Non-local corr. energy    =       0.13510411 Ry
     -----------------------------------------------


     total cpu time spent up to now is       34.6 secs

     total energy              =     -44.94350275 Ry
     Harris-Foulkes estimate   =     -45.19777877 Ry
     estimated scf accuracy    <       0.53977865 Ry

     iteration #  2     ecut=    62.47 Ry     beta=0.33
     Davidson diagonalization with overlap
     ethr =  6.75E-03,  avg # of iterations =  1.0

     negative rho (up, down):  9.069E-04 0.000E+00


     -----------------------------------------------
     Non-local corr. energy    =       0.13567407 Ry
     -----------------------------------------------


     total cpu time spent up to now is       41.3 secs

     total energy              =     -44.98624396 Ry
     Harris-Foulkes estimate   =     -45.00577316 Ry
     estimated scf accuracy    <       0.04798181 Ry

     iteration #  3     ecut=    62.47 Ry     beta=0.33
     Davidson diagonalization with overlap
     ethr =  6.00E-04,  avg # of iterations =  6.0

     negative rho (up, down):  1.515E-03 0.000E+00


     -----------------------------------------------
     Non-local corr. energy    =       0.13504599 Ry
     -----------------------------------------------


     total cpu time spent up to now is       49.0 secs

     total energy              =     -45.00636823 Ry
     Harris-Foulkes estimate   =     -45.03699373 Ry
     estimated scf accuracy    <       0.04681436 Ry

     iteration #  4     ecut=    62.47 Ry     beta=0.33
     Davidson diagonalization with overlap
     ethr =  5.85E-04,  avg # of iterations =  3.0

     negative rho (up, down):  1.558E-03 0.000E+00


     -----------------------------------------------
     Non-local corr. energy    =       0.13635153 Ry
     -----------------------------------------------


     total cpu time spent up to now is       55.7 secs

     total energy              =     -45.00989301 Ry
     Harris-Foulkes estimate   =     -45.04440069 Ry
     estimated scf accuracy    <       0.06749683 Ry

     iteration #  5     ecut=    62.47 Ry     beta=0.33
     Davidson diagonalization with overlap
     ethr =  5.85E-04,  avg # of iterations =  4.0

     negative rho (up, down):  1.482E-03 0.000E+00


     -----------------------------------------------
     Non-local corr. energy    =       0.13630873 Ry
     -----------------------------------------------


     total cpu time spent up to now is       62.6 secs

     total energy              =     -45.01783397 Ry
     Harris-Foulkes estimate   =     -45.01814546 Ry
     estimated scf accuracy    <       0.00363542 Ry

     iteration #  6     ecut=    62.47 Ry     beta=0.33
     Davidson diagonalization with overlap
     ethr =  4.54E-05,  avg # of iterations =  8.0

     negative rho (up, down):  1.487E-03 0.000E+00


     -----------------------------------------------
     Non-local corr. energy    =       0.13625038 Ry
     -----------------------------------------------


     total cpu time spent up to now is       70.5 secs

     total energy              =     -45.02476358 Ry
     Harris-Foulkes estimate   =     -45.02509145 Ry
     estimated scf accuracy    <       0.00145183 Ry

     iteration #  7     ecut=    62.47 Ry     beta=0.33
     Davidson diagonalization with overlap
     ethr =  1.81E-05,  avg # of iterations =  8.0

     negative rho (up, down):  1.560E-03 0.000E+00


     -----------------------------------------------
     Non-local corr. energy    =       0.13617963 Ry
     -----------------------------------------------


     total cpu time spent up to now is       77.7 secs

     total energy              =     -45.02447710 Ry
     Harris-Foulkes estimate   =     -45.02479595 Ry
     estimated scf accuracy    <       0.00069236 Ry

     iteration #  8     ecut=    62.47 Ry     beta=0.33
     Davidson diagonalization with overlap
     ethr =  8.65E-06,  avg # of iterations =  3.0

     negative rho (up, down):  1.584E-03 0.000E+00


     -----------------------------------------------
     Non-local corr. energy    =       0.13616845 Ry
     -----------------------------------------------


     total cpu time spent up to now is       84.5 secs

     total energy              =     -45.02470780 Ry
     Harris-Foulkes estimate   =     -45.02470011 Ry
     estimated scf accuracy    <       0.00002824 Ry

     iteration #  9     ecut=    62.47 Ry     beta=0.33
     Davidson diagonalization with overlap
     ethr =  3.53E-07,  avg # of iterations =  5.0

     negative rho (up, down):  1.592E-03 0.000E+00


     -----------------------------------------------
     Non-local corr. energy    =       0.13616728 Ry
     -----------------------------------------------


     total cpu time spent up to now is       91.4 secs

     total energy              =     -45.02470999 Ry
     Harris-Foulkes estimate   =     -45.02470919 Ry
     estimated scf accuracy    <       0.00005290 Ry

     iteration # 10     ecut=    62.47 Ry     beta=0.33
     Davidson diagonalization with overlap
     ethr =  3.53E-07,  avg # of iterations =  1.0

     negative rho (up, down):  1.596E-03 0.000E+00


     -----------------------------------------------
     Non-local corr. energy    =       0.13617082 Ry
     -----------------------------------------------


     total cpu time spent up to now is       97.9 secs

     total energy              =     -45.02470556 Ry
     Harris-Foulkes estimate   =     -45.02471020 Ry
     estimated scf accuracy    <       0.00005603 Ry

     iteration # 11     ecut=    62.47 Ry     beta=0.33
     Davidson diagonalization with overlap
     ethr =  3.53E-07,  avg # of iterations =  1.0

     negative rho (up, down):  1.598E-03 0.000E+00


     -----------------------------------------------
     Non-local corr. energy    =       0.13617430 Ry
     -----------------------------------------------


     total cpu time spent up to now is      104.4 secs

     total energy              =     -45.02469750 Ry
     Harris-Foulkes estimate   =     -45.02470573 Ry
     estimated scf accuracy    <       0.00004736 Ry

     iteration # 12     ecut=    62.47 Ry     beta=0.33
     Davidson diagonalization with overlap
     ethr =  3.53E-07,  avg # of iterations =  1.0

     negative rho (up, down):  1.597E-03 0.000E+00


     -----------------------------------------------
     Non-local corr. energy    =       0.13617460 Ry
     -----------------------------------------------


     total cpu time spent up to now is      111.0 secs

     total energy              =     -45.02469671 Ry
     Harris-Foulkes estimate   =     -45.02469806 Ry
     estimated scf accuracy    <       0.00002830 Ry

     iteration # 13     ecut=    62.47 Ry     beta=0.33
     Davidson diagonalization with overlap
     ethr =  3.53E-07,  avg # of iterations =  1.0

     negative rho (up, down):  1.597E-03 0.000E+00


     -----------------------------------------------
     Non-local corr. energy    =       0.13617464 Ry
     -----------------------------------------------


     total cpu time spent up to now is      117.5 secs

     total energy              =     -45.02469780 Ry
     Harris-Foulkes estimate   =     -45.02469721 Ry
     estimated scf accuracy    <       0.00002070 Ry

     iteration # 14     ecut=    62.47 Ry     beta=0.33
     Davidson diagonalization with overlap
     ethr =  2.59E-07,  avg # of iterations =  1.0

     negative rho (up, down):  1.597E-03 0.000E+00


     -----------------------------------------------
     Non-local corr. energy    =       0.13617547 Ry
     -----------------------------------------------


     total cpu time spent up to now is      124.0 secs

     total energy              =     -45.02469731 Ry
     Harris-Foulkes estimate   =     -45.02469788 Ry
     estimated scf accuracy    <       0.00002106 Ry

     iteration # 15     ecut=    62.47 Ry     beta=0.33
     Davidson diagonalization with overlap
     ethr =  2.59E-07,  avg # of iterations =  1.0

     negative rho (up, down):  1.596E-03 0.000E+00


     -----------------------------------------------
     Non-local corr. energy    =       0.13617584 Ry
     -----------------------------------------------


     total cpu time spent up to now is      130.5 secs

     total energy              =     -45.02469653 Ry
     Harris-Foulkes estimate   =     -45.02469740 Ry
     estimated scf accuracy    <       0.00001781 Ry

     iteration # 16     ecut=    62.47 Ry     beta=0.33
     Davidson diagonalization with overlap
     ethr =  2.23E-07,  avg # of iterations =  1.0

     negative rho (up, down):  1.596E-03 0.000E+00


     -----------------------------------------------
     Non-local corr. energy    =       0.13617578 Ry
     -----------------------------------------------


     total cpu time spent up to now is      137.0 secs

     total energy              =     -45.02469643 Ry
     Harris-Foulkes estimate   =     -45.02469656 Ry
     estimated scf accuracy    <       0.00001489 Ry

     iteration # 17     ecut=    62.47 Ry     beta=0.33
     Davidson diagonalization with overlap
     ethr =  1.86E-07,  avg # of iterations =  1.0

     negative rho (up, down):  1.596E-03 0.000E+00


     -----------------------------------------------
     Non-local corr. energy    =       0.13617609 Ry
     -----------------------------------------------


     total cpu time spent up to now is      143.6 secs

     total energy              =     -45.02469551 Ry
     Harris-Foulkes estimate   =     -45.02469644 Ry
     estimated scf accuracy    <       0.00001450 Ry

     iteration # 18     ecut=    62.47 Ry     beta=0.33
     Davidson diagonalization with overlap
     ethr =  1.81E-07,  avg # of iterations =  1.0

     negative rho (up, down):  1.573E-03 0.000E+00


     -----------------------------------------------
     Non-local corr. energy    =       0.13617702 Ry
     -----------------------------------------------


     total cpu time spent up to now is      150.1 secs

     total energy              =     -45.02468959 Ry
     Harris-Foulkes estimate   =     -45.02469555 Ry
     estimated scf accuracy    <       0.00001177 Ry

     iteration # 19     ecut=    62.47 Ry     beta=0.33
     Davidson diagonalization with overlap
     ethr =  1.47E-07,  avg # of iterations =  3.0

     negative rho (up, down):  1.577E-03 0.000E+00


     -----------------------------------------------
     Non-local corr. energy    =       0.13617793 Ry
     -----------------------------------------------


     total cpu time spent up to now is      156.8 secs

     total energy              =     -45.02469313 Ry
     Harris-Foulkes estimate   =     -45.02469508 Ry
     estimated scf accuracy    <       0.00000370 Ry

     iteration # 20     ecut=    62.47 Ry     beta=0.33
     Davidson diagonalization with overlap
     ethr =  4.63E-08,  avg # of iterations =  1.0

     negative rho (up, down):  1.576E-03 0.000E+00


     -----------------------------------------------
     Non-local corr. energy    =       0.13617808 Ry
     -----------------------------------------------


     total cpu time spent up to now is      163.3 secs

     total energy              =     -45.02469366 Ry
     Harris-Foulkes estimate   =     -45.02469342 Ry
     estimated scf accuracy    <       0.00000059 Ry

     iteration # 21     ecut=    62.47 Ry     beta=0.33
     Davidson diagonalization with overlap
     ethr =  7.31E-09,  avg # of iterations =  1.0

     negative rho (up, down):  1.577E-03 0.000E+00


     -----------------------------------------------
     Non-local corr. energy    =       0.13617831 Ry
     -----------------------------------------------


     total cpu time spent up to now is      169.9 secs

     total energy              =     -45.02469344 Ry
     Harris-Foulkes estimate   =     -45.02469370 Ry
     estimated scf accuracy    <       0.00000098 Ry

     iteration # 22     ecut=    62.47 Ry     beta=0.33
     Davidson diagonalization with overlap
     ethr =  7.31E-09,  avg # of iterations =  3.0

     negative rho (up, down):  1.576E-03 0.000E+00


     -----------------------------------------------
     Non-local corr. energy    =       0.13617826 Ry
     -----------------------------------------------


     total cpu time spent up to now is      176.5 secs

     total energy              =     -45.02469369 Ry
     Harris-Foulkes estimate   =     -45.02469367 Ry
     estimated scf accuracy    <       0.00000010 Ry

     iteration # 23     ecut=    62.47 Ry     beta=0.33
     Davidson diagonalization with overlap
     ethr =  1.25E-09,  avg # of iterations =  4.0

     negative rho (up, down):  1.573E-03 0.000E+00


     -----------------------------------------------
     Non-local corr. energy    =       0.13617836 Ry
     -----------------------------------------------


     total cpu time spent up to now is      183.3 secs

     total energy              =     -45.02469392 Ry
     Harris-Foulkes estimate   =     -45.02469378 Ry
     estimated scf accuracy    <       0.00000002 Ry

     iteration # 24     ecut=    62.47 Ry     beta=0.33
     Davidson diagonalization with overlap
     ethr =  2.34E-10,  avg # of iterations =  3.0

     negative rho (up, down):  1.573E-03 0.000E+00


     -----------------------------------------------
     Non-local corr. energy    =       0.13617865 Ry
     -----------------------------------------------


     total cpu time spent up to now is      190.1 secs

     total energy              =     -45.02469391 Ry
     Harris-Foulkes estimate   =     -45.02469395 Ry
     estimated scf accuracy    <       0.00000020 Ry

     iteration # 25     ecut=    62.47 Ry     beta=0.33
     Davidson diagonalization with overlap
     ethr =  2.34E-10,  avg # of iterations =  1.0

     negative rho (up, down):  1.573E-03 0.000E+00


     -----------------------------------------------
     Non-local corr. energy    =       0.13617876 Ry
     -----------------------------------------------


     total cpu time spent up to now is      196.6 secs

     total energy              =     -45.02469388 Ry
     Harris-Foulkes estimate   =     -45.02469391 Ry
     estimated scf accuracy    <       0.00000013 Ry

     iteration # 26     ecut=    62.47 Ry     beta=0.33
     Davidson diagonalization with overlap
     ethr =  2.34E-10,  avg # of iterations =  3.0

     negative rho (up, down):  1.572E-03 0.000E+00


     -----------------------------------------------
     Non-local corr. energy    =       0.13617893 Ry
     -----------------------------------------------


     total cpu time spent up to now is      203.3 secs

     total energy              =     -45.02469378 Ry
     Harris-Foulkes estimate   =     -45.02469389 Ry
     estimated scf accuracy    <       0.00000006 Ry

     iteration # 27     ecut=    62.47 Ry     beta=0.33
     Davidson diagonalization with overlap
     ethr =  2.34E-10,  avg # of iterations =  3.0

     negative rho (up, down):  1.572E-03 0.000E+00


     -----------------------------------------------
     Non-local corr. energy    =       0.13617897 Ry
     -----------------------------------------------


     total cpu time spent up to now is      210.1 secs

     total energy              =     -45.02469384 Ry
     Harris-Foulkes estimate   =     -45.02469383 Ry
     estimated scf accuracy    <       0.00000009 Ry

     iteration # 28     ecut=    62.47 Ry     beta=0.33
     Davidson diagonalization with overlap
     ethr =  2.34E-10,  avg # of iterations =  1.0

     negative rho (up, down):  1.572E-03 0.000E+00


     -----------------------------------------------
     Non-local corr. energy    =       0.13617892 Ry
     -----------------------------------------------


     total cpu time spent up to now is      216.6 secs

     total energy              =     -45.02469385 Ry
     Harris-Foulkes estimate   =     -45.02469384 Ry
     estimated scf accuracy    <       0.00000006 Ry

     iteration # 29     ecut=    62.47 Ry     beta=0.33
     Davidson diagonalization with overlap
     ethr =  2.34E-10,  avg # of iterations =  1.0

     negative rho (up, down):  1.572E-03 0.000E+00


     -----------------------------------------------
     Non-local corr. energy    =       0.13617889 Ry
     -----------------------------------------------


     total cpu time spent up to now is      223.1 secs

     total energy              =     -45.02469385 Ry
     Harris-Foulkes estimate   =     -45.02469385 Ry
     estimated scf accuracy    <       0.00000003 Ry

     iteration # 30     ecut=    62.47 Ry     beta=0.33
     Davidson diagonalization with overlap
     ethr =  2.34E-10,  avg # of iterations =  1.0

     negative rho (up, down):  1.572E-03 0.000E+00


     -----------------------------------------------
     Non-local corr. energy    =       0.13617886 Ry
     -----------------------------------------------


     total cpu time spent up to now is      229.6 secs

     total energy              =     -45.02469385 Ry
     Harris-Foulkes estimate   =     -45.02469385 Ry
     estimated scf accuracy    <       0.00000004 Ry

     iteration # 31     ecut=    62.47 Ry     beta=0.33
     Davidson diagonalization with overlap
     ethr =  2.34E-10,  avg # of iterations =  1.0

     negative rho (up, down):  1.572E-03 0.000E+00


     -----------------------------------------------
     Non-local corr. energy    =       0.13617882 Ry
     -----------------------------------------------


     total cpu time spent up to now is      236.1 secs

     total energy              =     -45.02469386 Ry
     Harris-Foulkes estimate   =     -45.02469385 Ry
     estimated scf accuracy    <       0.00000002 Ry

     iteration # 32     ecut=    62.47 Ry     beta=0.33
     Davidson diagonalization with overlap
     ethr =  2.34E-10,  avg # of iterations =  1.0

     negative rho (up, down):  1.572E-03 0.000E+00


     -----------------------------------------------
     Non-local corr. energy    =       0.13617883 Ry
     -----------------------------------------------


     total cpu time spent up to now is      242.5 secs

     total energy              =     -45.02469385 Ry
     Harris-Foulkes estimate   =     -45.02469386 Ry
     estimated scf accuracy    <       0.00000002 Ry

     iteration # 33     ecut=    62.47 Ry     beta=0.33
     Davidson diagonalization with overlap
     ethr =  2.34E-10,  avg # of iterations =  1.0

     negative rho (up, down):  1.572E-03 0.000E+00


     -----------------------------------------------
     Non-local corr. energy    =       0.13617883 Ry
     -----------------------------------------------


     total cpu time spent up to now is      249.1 secs

     total energy              =     -45.02469386 Ry
     Harris-Foulkes estimate   =     -45.02469385 Ry
     estimated scf accuracy    <       0.00000002 Ry

     iteration # 34     ecut=    62.47 Ry     beta=0.33
     Davidson diagonalization with overlap
     ethr =  2.32E-10,  avg # of iterations =  1.0

     negative rho (up, down):  1.572E-03 0.000E+00


     -----------------------------------------------
     Non-local corr. energy    =       0.13617882 Ry
     -----------------------------------------------


     total cpu time spent up to now is      255.6 secs

     total energy              =     -45.02469386 Ry
     Harris-Foulkes estimate   =     -45.02469386 Ry
     estimated scf accuracy    <       0.00000001 Ry

     iteration # 35     ecut=    62.47 Ry     beta=0.33
     Davidson diagonalization with overlap
     ethr =  1.31E-10,  avg # of iterations =  1.0

     negative rho (up, down):  1.572E-03 0.000E+00


     -----------------------------------------------
     Non-local corr. energy    =       0.13617873 Ry
     -----------------------------------------------


     total cpu time spent up to now is      262.1 secs

     total energy              =     -45.02469386 Ry
     Harris-Foulkes estimate   =     -45.02469386 Ry
     estimated scf accuracy    <          6.0E-09 Ry

     iteration # 36     ecut=    62.47 Ry     beta=0.33
     Davidson diagonalization with overlap
     ethr =  7.46E-11,  avg # of iterations =  3.0

     negative rho (up, down):  1.572E-03 0.000E+00


     -----------------------------------------------
     Non-local corr. energy    =       0.13617876 Ry
     -----------------------------------------------


     total cpu time spent up to now is      268.8 secs

     total energy              =     -45.02469386 Ry
     Harris-Foulkes estimate   =     -45.02469387 Ry
     estimated scf accuracy    <          2.9E-09 Ry

     iteration # 37     ecut=    62.47 Ry     beta=0.33
     Davidson diagonalization with overlap
     ethr =  3.57E-11,  avg # of iterations =  1.0

     negative rho (up, down):  1.572E-03 0.000E+00


     -----------------------------------------------
     Non-local corr. energy    =       0.13617880 Ry
     -----------------------------------------------


     total cpu time spent up to now is      275.3 secs

     total energy              =     -45.02469386 Ry
     Harris-Foulkes estimate   =     -45.02469386 Ry
     estimated scf accuracy    <          1.8E-09 Ry

     iteration # 38     ecut=    62.47 Ry     beta=0.33
     Davidson diagonalization with overlap
     ethr =  2.20E-11,  avg # of iterations =  2.0

     negative rho (up, down):  1.572E-03 0.000E+00


     -----------------------------------------------
     Non-local corr. energy    =       0.13617884 Ry
     -----------------------------------------------


     total cpu time spent up to now is      281.9 secs

     total energy              =     -45.02469386 Ry
     Harris-Foulkes estimate   =     -45.02469386 Ry
     estimated scf accuracy    <          6.7E-10 Ry

     iteration # 39     ecut=    62.47 Ry     beta=0.33
     Davidson diagonalization with overlap
     ethr =  8.38E-12,  avg # of iterations =  3.0

     negative rho (up, down):  1.572E-03 0.000E+00


     -----------------------------------------------
     Non-local corr. energy    =       0.13617884 Ry
     -----------------------------------------------


     total cpu time spent up to now is      288.6 secs

     total energy              =     -45.02469386 Ry
     Harris-Foulkes estimate   =     -45.02469386 Ry
     estimated scf accuracy    <          5.8E-10 Ry

     iteration # 40     ecut=    62.47 Ry     beta=0.33
     Davidson diagonalization with overlap
     ethr =  7.19E-12,  avg # of iterations =  1.0

     negative rho (up, down):  1.572E-03 0.000E+00


     -----------------------------------------------
     Non-local corr. energy    =       0.13617884 Ry
     -----------------------------------------------


     total cpu time spent up to now is      295.1 secs

     total energy              =     -45.02469386 Ry
     Harris-Foulkes estimate   =     -45.02469386 Ry
     estimated scf accuracy    <          4.8E-10 Ry

     iteration # 41     ecut=    62.47 Ry     beta=0.33
     Davidson diagonalization with overlap
     ethr =  5.96E-12,  avg # of iterations =  1.0

     negative rho (up, down):  1.572E-03 0.000E+00


     -----------------------------------------------
     Non-local corr. energy    =       0.13617885 Ry
     -----------------------------------------------


     total cpu time spent up to now is      301.7 secs

     total energy              =     -45.02469387 Ry
     Harris-Foulkes estimate   =     -45.02469386 Ry
     estimated scf accuracy    <          3.9E-10 Ry

     iteration # 42     ecut=    62.47 Ry     beta=0.33
     Davidson diagonalization with overlap
     ethr =  4.88E-12,  avg # of iterations =  1.0

     negative rho (up, down):  1.572E-03 0.000E+00


     -----------------------------------------------
     Non-local corr. energy    =       0.13617885 Ry
     -----------------------------------------------


     total cpu time spent up to now is      308.2 secs

     total energy              =     -45.02469387 Ry
     Harris-Foulkes estimate   =     -45.02469387 Ry
     estimated scf accuracy    <          3.4E-10 Ry

     iteration # 43     ecut=    62.47 Ry     beta=0.33
     Davidson diagonalization with overlap
     ethr =  4.24E-12,  avg # of iterations =  1.0

     negative rho (up, down):  1.572E-03 0.000E+00


     -----------------------------------------------
     Non-local corr. energy    =       0.13617885 Ry
     -----------------------------------------------


     total cpu time spent up to now is      314.7 secs

     total energy              =     -45.02469387 Ry
     Harris-Foulkes estimate   =     -45.02469387 Ry
     estimated scf accuracy    <          2.8E-10 Ry

     iteration # 44     ecut=    62.47 Ry     beta=0.33
     Davidson diagonalization with overlap
     ethr =  3.46E-12,  avg # of iterations =  1.0

     negative rho (up, down):  1.572E-03 0.000E+00


     -----------------------------------------------
     Non-local corr. energy    =       0.13617886 Ry
     -----------------------------------------------


     total cpu time spent up to now is      321.2 secs

     total energy              =     -45.02469387 Ry
     Harris-Foulkes estimate   =     -45.02469387 Ry
     estimated scf accuracy    <          3.7E-10 Ry

     iteration # 45     ecut=    62.47 Ry     beta=0.33
     Davidson diagonalization with overlap
     ethr =  3.46E-12,  avg # of iterations =  2.0

     negative rho (up, down):  1.572E-03 0.000E+00


     -----------------------------------------------
     Non-local corr. energy    =       0.13617887 Ry
     -----------------------------------------------


     total cpu time spent up to now is      327.8 secs

     total energy              =     -45.02469387 Ry
     Harris-Foulkes estimate   =     -45.02469387 Ry
     estimated scf accuracy    <          4.8E-10 Ry

     iteration # 46     ecut=    62.47 Ry     beta=0.33
     Davidson diagonalization with overlap
     ethr =  3.46E-12,  avg # of iterations =  1.0

     negative rho (up, down):  1.572E-03 0.000E+00


     -----------------------------------------------
     Non-local corr. energy    =       0.13617885 Ry
     -----------------------------------------------


     total cpu time spent up to now is      334.4 secs

     total energy              =     -45.02469387 Ry
     Harris-Foulkes estimate   =     -45.02469387 Ry
     estimated scf accuracy    <          4.6E-10 Ry

     iteration # 47     ecut=    62.47 Ry     beta=0.33
     Davidson diagonalization with overlap
     ethr =  3.46E-12,  avg # of iterations =  3.0

     negative rho (up, down):  1.572E-03 0.000E+00


     -----------------------------------------------
     Non-local corr. energy    =       0.13617879 Ry
     -----------------------------------------------


     total cpu time spent up to now is      341.0 secs

     total energy              =     -45.02469387 Ry
     Harris-Foulkes estimate   =     -45.02469387 Ry
     estimated scf accuracy    <          2.1E-10 Ry

     iteration # 48     ecut=    62.47 Ry     beta=0.33
     Davidson diagonalization with overlap
     ethr =  2.66E-12,  avg # of iterations =  1.0

     negative rho (up, down):  1.572E-03 0.000E+00


     -----------------------------------------------
     Non-local corr. energy    =       0.13617882 Ry
     -----------------------------------------------


     total cpu time spent up to now is      347.5 secs

     total energy              =     -45.02469387 Ry
     Harris-Foulkes estimate   =     -45.02469387 Ry
     estimated scf accuracy    <          1.3E-10 Ry

     iteration # 49     ecut=    62.47 Ry     beta=0.33
     Davidson diagonalization with overlap
     ethr =  1.59E-12,  avg # of iterations =  2.0

     negative rho (up, down):  1.572E-03 0.000E+00


     -----------------------------------------------
     Non-local corr. energy    =       0.13617883 Ry
     -----------------------------------------------


     total cpu time spent up to now is      354.1 secs

     total energy              =     -45.02469387 Ry
     Harris-Foulkes estimate   =     -45.02469387 Ry
     estimated scf accuracy    <          2.4E-11 Ry

     iteration # 50     ecut=    62.47 Ry     beta=0.33
     Davidson diagonalization with overlap
     ethr =  3.01E-13,  avg # of iterations =  2.0

     negative rho (up, down):  1.572E-03 0.000E+00


     -----------------------------------------------
     Non-local corr. energy    =       0.13617885 Ry
     -----------------------------------------------


     total cpu time spent up to now is      360.7 secs

     total energy              =     -45.02469387 Ry
     Harris-Foulkes estimate   =     -45.02469387 Ry
     estimated scf accuracy    <          2.9E-11 Ry

     iteration # 51     ecut=    62.47 Ry     beta=0.33
     Davidson diagonalization with overlap
     ethr =  3.01E-13,  avg # of iterations =  3.0

     negative rho (up, down):  1.572E-03 0.000E+00


     -----------------------------------------------
     Non-local corr. energy    =       0.13617884 Ry
     -----------------------------------------------


     total cpu time spent up to now is      367.4 secs

     total energy              =     -45.02469387 Ry
     Harris-Foulkes estimate   =     -45.02469387 Ry
     estimated scf accuracy    <          4.4E-11 Ry

     iteration # 52     ecut=    62.47 Ry     beta=0.33
     Davidson diagonalization with overlap
     ethr =  3.01E-13,  avg # of iterations =  3.0

     negative rho (up, down):  1.572E-03 0.000E+00


     -----------------------------------------------
     Non-local corr. energy    =       0.13617885 Ry
     -----------------------------------------------


     total cpu time spent up to now is      374.1 secs

     total energy              =     -45.02469387 Ry
     Harris-Foulkes estimate   =     -45.02469387 Ry
     estimated scf accuracy    <          2.7E-10 Ry

     iteration # 53     ecut=    62.47 Ry     beta=0.33
     Davidson diagonalization with overlap
     ethr =  3.01E-13,  avg # of iterations =  1.0

     negative rho (up, down):  1.572E-03 0.000E+00


     -----------------------------------------------
     Non-local corr. energy    =       0.13617884 Ry
     -----------------------------------------------


     total cpu time spent up to now is      380.6 secs

     total energy              =     -45.02469387 Ry
     Harris-Foulkes estimate   =     -45.02469387 Ry
     estimated scf accuracy    <          2.5E-10 Ry

     iteration # 54     ecut=    62.47 Ry     beta=0.33
     Davidson diagonalization with overlap
     ethr =  3.01E-13,  avg # of iterations =  1.0

     negative rho (up, down):  1.572E-03 0.000E+00


     -----------------------------------------------
     Non-local corr. energy    =       0.13617885 Ry
     -----------------------------------------------


     total cpu time spent up to now is      387.1 secs

     total energy              =     -45.02469387 Ry
     Harris-Foulkes estimate   =     -45.02469387 Ry
     estimated scf accuracy    <          2.3E-10 Ry

     iteration # 55     ecut=    62.47 Ry     beta=0.33
     Davidson diagonalization with overlap
     ethr =  3.01E-13,  avg # of iterations =  2.0

     negative rho (up, down):  1.572E-03 0.000E+00


     -----------------------------------------------
     Non-local corr. energy    =       0.13617884 Ry
     -----------------------------------------------


     total cpu time spent up to now is      393.7 secs

     total energy              =     -45.02469387 Ry
     Harris-Foulkes estimate   =     -45.02469387 Ry
     estimated scf accuracy    <          1.3E-10 Ry

     iteration # 56     ecut=    62.47 Ry     beta=0.33
     Davidson diagonalization with overlap
     ethr =  3.01E-13,  avg # of iterations =  1.0

     negative rho (up, down):  1.572E-03 0.000E+00


     -----------------------------------------------
     Non-local corr. energy    =       0.13617884 Ry
     -----------------------------------------------


     total cpu time spent up to now is      400.2 secs

     total energy              =     -45.02469387 Ry
     Harris-Foulkes estimate   =     -45.02469387 Ry
     estimated scf accuracy    <          2.1E-10 Ry

     iteration # 57     ecut=    62.47 Ry     beta=0.33
     Davidson diagonalization with overlap
     ethr =  3.01E-13,  avg # of iterations =  1.0

     negative rho (up, down):  1.572E-03 0.000E+00


     -----------------------------------------------
     Non-local corr. energy    =       0.13617882 Ry
     -----------------------------------------------


     total cpu time spent up to now is      406.7 secs

     total energy              =     -45.02469387 Ry
     Harris-Foulkes estimate   =     -45.02469387 Ry
     estimated scf accuracy    <          1.8E-10 Ry

     iteration # 58     ecut=    62.47 Ry     beta=0.33
     Davidson diagonalization with overlap
     ethr =  3.01E-13,  avg # of iterations =  1.0

     negative rho (up, down):  1.572E-03 0.000E+00


     -----------------------------------------------
     Non-local corr. energy    =       0.13617883 Ry
     -----------------------------------------------


     total cpu time spent up to now is      413.2 secs

     total energy              =     -45.02469387 Ry
     Harris-Foulkes estimate   =     -45.02469387 Ry
     estimated scf accuracy    <          2.6E-10 Ry

     iteration # 59     ecut=    62.47 Ry     beta=0.33
     Davidson diagonalization with overlap
     ethr =  3.01E-13,  avg # of iterations =  2.0

     negative rho (up, down):  1.572E-03 0.000E+00


     -----------------------------------------------
     Non-local corr. energy    =       0.13617883 Ry
     -----------------------------------------------


     total cpu time spent up to now is      419.8 secs

     total energy              =     -45.02469387 Ry
     Harris-Foulkes estimate   =     -45.02469387 Ry
     estimated scf accuracy    <          1.3E-10 Ry

     iteration # 60     ecut=    62.47 Ry     beta=0.33
     Davidson diagonalization with overlap
     ethr =  3.01E-13,  avg # of iterations =  3.0

     negative rho (up, down):  1.572E-03 0.000E+00


     -----------------------------------------------
     Non-local corr. energy    =       0.13617883 Ry
     -----------------------------------------------


     total cpu time spent up to now is      426.5 secs

     End of self-consistent calculation

          k = 0.0000 0.0000 0.0000 (450127 PWs)   bands (ev):

   -25.6219 -13.5474  -9.6928  -7.6567  -1.4710  -0.1534  -0.0055   0.1333
     0.1428   0.1858   0.2113   0.3025   0.3139   0.4477   0.4675   0.5454
     0.5465   0.5494   0.5598   0.5767   0.5871   0.5880   0.5883   0.7560
     0.7780   0.8642   0.8802   0.9201   0.9280   0.9421   0.9551   1.0767
     1.1136   1.2059   1.2247   1.2632   1.2926   1.3847   1.4173   1.4994

     occupation numbers 
     1.0000   1.0000   1.0000   1.0000   0.0000   0.0000   0.0000   0.0000
     0.0000   0.0000   0.0000   0.0000   0.0000   0.0000   0.0000   0.0000
     0.0000   0.0000   0.0000   0.0000   0.0000   0.0000   0.0000   0.0000
     0.0000   0.0000   0.0000   0.0000   0.0000   0.0000   0.0000   0.0000
     0.0000   0.0000   0.0000   0.0000   0.0000   0.0000   0.0000   0.0000

     highest occupied, lowest unoccupied level (ev):    -7.6567   -1.4710

!    total energy              =     -45.02469387 Ry
     Harris-Foulkes estimate   =     -45.02469387 Ry
     estimated scf accuracy    <          5.2E-12 Ry

     total all-electron energy =      -153.871576 Ry

     The total energy is the sum of the following terms:

     one-electron contribution =     -68.85932660 Ry
     hartree contribution      =      36.11608845 Ry
     xc contribution           =      -9.22869273 Ry
     ewald contribution        =       7.17303113 Ry
     one-center paw contrib.   =     -10.22579413 Ry
      -> PAW hartree energy AE =      27.89632029 Ry
      -> PAW hartree energy PS =     -27.86163578 Ry
      -> PAW xc energy AE      =     -17.90380843 Ry
      -> PAW xc energy PS      =       7.64457493 Ry
      -> total E_H with PAW    =      36.15077297 Ry
      -> total E_XC with PAW   =     -19.48792623 Ry

     convergence has been achieved in  60 iterations

     negative rho (up, down):  1.572E-03 0.000E+00


     -----------------------------------------------
     Non-local corr. energy    =       0.13617883 Ry
     -----------------------------------------------


     Forces acting on atoms (cartesian axes, Ry/au):

     atom    1 type  1   force =     0.00000105   -0.00007684    0.00004211
     atom    2 type  2   force =    -0.00000090    0.00001159    0.00001082
     atom    3 type  2   force =    -0.00000015    0.00006525   -0.00004823
     The non-local contrib.  to forces
     atom    1 type  1   force =    -0.02125256    0.00012331    2.51673646
     atom    2 type  2   force =    -0.00004817   -0.09244017   -0.06539098
     atom    3 type  2   force =     0.00115351    0.09241872   -0.06537436
     The ionic contribution  to forces
     atom    1 type  1   force =     0.03676477   -0.00045076   -4.35669047
     atom    2 type  2   force =     0.00153584    3.06412232    2.17851859
     atom    3 type  2   force =    -0.03830061   -3.06367156    2.17817188
     The local contribution  to forces
     atom    1 type  1   force =    -0.01571582    0.00025137    1.86420358
     atom    2 type  2   force =    -0.00148861   -2.97167098   -2.11311718
     atom    3 type  2   force =     0.03714694    2.97131850   -2.11284617
     The core correction contribution to forces
     atom    1 type  1   force =     0.00020442   -0.00000089   -0.02420794
     atom    2 type  2   force =     0.00000000    0.00000000    0.00000000
     atom    3 type  2   force =     0.00000000    0.00000000    0.00000000
     The Hubbard contrib.    to forces
     atom    1 type  1   force =     0.00000000    0.00000000    0.00000000
     atom    2 type  2   force =     0.00000000    0.00000000    0.00000000
     atom    3 type  2   force =     0.00000000    0.00000000    0.00000000
     The SCF correction term to forces
     atom    1 type  1   force =     0.00000023    0.00000013    0.00000048
     atom    2 type  2   force =     0.00000003    0.00000040    0.00000038
     atom    3 type  2   force =     0.00000000   -0.00000043    0.00000043

     Total force =     0.000120     Total SCF correction =     0.000001

     Writing output data file H2O_IR.save
 
     init_run     :     44.04s CPU     23.69s WALL (       1 calls)
     electrons    :    784.05s CPU    402.19s WALL (       1 calls)
     forces       :     15.81s CPU      7.71s WALL (       1 calls)

     Called by init_run:
     wfcinit      :      0.38s CPU      0.39s WALL (       1 calls)
     wfcinit:atom :      0.00s CPU      0.00s WALL (       1 calls)
     wfcinit:wfcr :      0.36s CPU      0.36s WALL (       1 calls)
     potinit      :     14.35s CPU      7.04s WALL (       1 calls)

     Called by electrons:
     c_bands      :    102.97s CPU     54.70s WALL (      60 calls)
     sum_band     :     43.56s CPU     20.00s WALL (      60 calls)
     v_of_rho     :    616.96s CPU    312.55s WALL (      61 calls)
     v_h          :     11.03s CPU      4.06s WALL (      61 calls)
     v_xc         :    616.08s CPU    313.65s WALL (      62 calls)
     newd         :     14.29s CPU      8.38s WALL (      61 calls)
     PAW_pot      :      3.36s CPU      2.09s WALL (      61 calls)
     mix_rho      :      7.47s CPU      6.12s WALL (      60 calls)

     Called by c_bands:
     init_us_2    :      0.10s CPU      0.11s WALL (     121 calls)
     cegterg      :    102.81s CPU     54.53s WALL (      60 calls)

     Called by sum_band:
     sum_band:bec :      0.00s CPU      0.00s WALL (      60 calls)
     addusdens    :      7.18s CPU      4.95s WALL (      60 calls)

     Called by *egterg:
     h_psi        :     75.55s CPU     39.08s WALL (     193 calls)
     s_psi        :      0.05s CPU      0.05s WALL (     193 calls)
     g_psi        :      0.02s CPU      0.03s WALL (     132 calls)
     cdiaghg      :      8.11s CPU      5.99s WALL (     192 calls)
     cegterg:over :      3.03s CPU      2.01s WALL (     132 calls)
     cegterg:upda :      3.41s CPU      0.70s WALL (     132 calls)
     cegterg:last :      1.03s CPU      0.31s WALL (      64 calls)
     cdiaghg:chol :      0.18s CPU      0.18s WALL (     192 calls)
     cdiaghg:inve :      0.12s CPU      0.12s WALL (     192 calls)
     cdiaghg:para :      0.14s CPU      0.14s WALL (     384 calls)

     Called by h_psi:
     h_psi:pot    :     75.49s CPU     39.02s WALL (     193 calls)
     h_psi:calbec :      0.96s CPU      0.15s WALL (     193 calls)
     vloc_psi     :     74.47s CPU     38.81s WALL (     193 calls)
     add_vuspsi   :      0.05s CPU      0.05s WALL (     193 calls)

     General routines
     calbec       :      1.02s CPU      0.22s WALL (     257 calls)
     fft          :    326.84s CPU    163.55s WALL (    4083 calls)
     ffts         :      0.86s CPU      0.85s WALL (     121 calls)
     fftw         :     86.85s CPU     42.54s WALL (   13182 calls)
     interpolate  :      8.80s CPU      5.75s WALL (     121 calls)
 
     Parallel routines
     fft_scatter  :    255.57s CPU    130.31s WALL (   17386 calls)

     PAW routines
     PAW_pot      :      3.36s CPU      2.09s WALL (      61 calls)
 
     PWSCF        : 14m10.44s CPU     7m18.47s WALL

 
   This run was terminated on:  14:43:12   9Feb2026            

=------------------------------------------------------------------------------=
   JOB DONE.
=------------------------------------------------------------------------------=
