
     Program PWSCF v.6.1 starts on 10Feb2026 at 17:57:55 

     This program is part of the open-source Quantum ESPRESSO suite
     for quantum simulation of materials; please cite
         "P. Giannozzi et al., J. Phys.:Condens. Matter 21 395502 (2009);
          URL http://www.quantum-espresso.org", 
     in publications or presentations arising from this work. More details at
     http://www.quantum-espresso.org/quote

     Parallel version (MPI & OpenMP), running on     480 processor cores
     Number of MPI processes:               240
     Threads/MPI process:                     2
     R & G space division:  proc/nbgrp/npool/nimage =     240
     Reading input from espresso.pwi

     Current dimensions of program PWSCF are:
     Max number of different atomic species (ntypx) = 10
     Max number of k-points (npk) =  40000
     Max angular momentum in pseudopotentials (lmaxx) =  3

     IMPORTANT: XC functional enforced from input :
     Exchange-correlation      = VDW-DF2 ( 1  4 13  0 2 0)
     Any further DFT definition will be discarded
     Please, verify this is what you really want

               file Cu.pbe-dn-kjpaw_psl.1.0.0.UPF: wavefunction(s)  4S 3D renormalized
               file C.pbe-n-kjpaw_psl.1.0.0.UPF: wavefunction(s)  2S 2P renormalized
               file O.pbe-n-kjpaw_psl.1.0.0.UPF: wavefunction(s)  2S 2P renormalized
     Message from routine iosys_1drism:
     default density from MOL file(H2O.tip5p.MOL) is used

     Subspace diagonalization in iterative solution of the eigenvalue problem:
     one sub-group per band group will be used
     ELPA distributed-memory algorithm (size of sub-group: 10* 10 procs)


     Molecule # 1 for H2O read from file:
     /work/gf93/f93007/QE/pseudo/H2O.tip5p.MOL
     Density:
         0.72794769E+02 cell^-1
         0.49533750E-02 bohr^-3
         0.55506881E+02 mol/L
         0.99997200E+00 g/cm^3
     Permittivity:
        78.355300
     Number of atoms:   5
     Atoms:
       #  atom      X (angs)      Y (angs)      Z (angs)      Q (e)         E (kcal/mol)  S (angs)
       1  O/h2o     0.00000000    0.00000000    0.00000000    0.00000000    0.16000000    3.12000000
       2  H/h2o     0.75695000    0.58588000    0.00000000    0.24100000    0.04600000    1.00000000
       3  H/h2o    -0.75695000    0.58588000    0.00000000    0.24100000    0.04600000    1.00000000
       4  L/h2o     0.00000000   -0.40415000    0.57154000   -0.24100000    0.04600000    1.80000000
       5  L/h2o     0.00000000   -0.40415000   -0.57154000   -0.24100000    0.04600000    1.80000000


     Molecule # 2 for K+ read from file:
     /work/gf93/f93007/QE/pseudo/K+.oplsaa.MOL
     Density:
         0.13114549E+01 cell^-1
         0.89238936E-04 bohr^-3
         0.10000000E+01 mol/L
         0.39098300E-01 g/cm^3
     Number of atoms:   1
     Atoms:
       #  atom      X (angs)      Y (angs)      Z (angs)      Q (e)         E (kcal/mol)  S (angs)
       1  K         0.00000000    0.00000000    0.00000000    1.00000000    0.00032800    4.93462800


     Molecule # 3 for OH- read from file:
     /work/gf93/f93007/QE/pseudo/OH-.oplsaa.MOL
     Density:
         0.13114549E+01 cell^-1
         0.89238936E-04 bohr^-3
         0.10000000E+01 mol/L
         0.17007340E-01 g/cm^3
     Number of atoms:   2
     Atoms:
       #  atom      X (angs)      Y (angs)      Z (angs)      Q (e)         E (kcal/mol)  S (angs)
       1  O/oh      0.00000000    0.00000000    0.00000000   -1.30000000    0.25000000    3.20000000
       2  H/oh      0.95300000    0.00000000    0.00000000    0.30000000    0.04600000    1.00000000


     Number of total sites:   8
     Index site -> solvent: 
       1  1  1  1  1  2  3  3
     Index site -> atom (in a solvent): 
       1  2  3  4  5  1  1  2


     Number of unique sites:   6
     Multiplicity of unique site: 
       1  2  2  1  1  1
     Index unique site -> site: 
       1:  1
       2:  2  3
       3:  4  5
       4:  6
       5:  7
       6:  8


     1D-RISM info
     ------------
     closure equation        =           KH
     temperature             =     300.0000  kelvin
     coulomb smearing radius =       2.0000  bohr
     number of solvent sites =            8
     nv * (nv + 1) / 2       =           36
     number of grids         =         8345
     maximum of R-space      =     999.8802  bohr
     maximum of G-space      =      26.2150  bohr^-1
     #R-grids in local       =           66
     #G-grids in local       =           66
     number of iterations    =       100000
     convergence threshold   =      1.0E-08
     Gaussian width of bonds =       0.2530  bohr
     size of MDIIS           =           20
     step of MDIIS           =       0.1000
     number of processes     =          128


     Radial FFT:
     number of radial grids   =         8345
     number of FFT grids      =        16689
     good number of FFT grids =           -1
     R-space grids:
       0.00000000E+00  0.11983223E+00  0.23966447E+00  0.35949670E+00  0.47932894E+00
       0.59916117E+00  0.71899341E+00  0.83882564E+00  0.95865788E+00  0.10784901E+01
       ..............  ..............  ..............  ..............  ..............
       0.99880168E+03  0.99892151E+03  0.99904134E+03  0.99916117E+03  0.99928101E+03
       0.99940084E+03  0.99952067E+03  0.99964050E+03  0.99976034E+03  0.99988017E+03
     G-space grids:
       0.00000000E+00  0.31417809E-02  0.62835618E-02  0.94253427E-02  0.12567124E-01
       0.15708904E-01  0.18850685E-01  0.21992466E-01  0.25134247E-01  0.28276028E-01
       ..............  ..............  ..............  ..............  ..............
       0.26186744E+02  0.26189886E+02  0.26193027E+02  0.26196169E+02  0.26199311E+02
       0.26202453E+02  0.26205594E+02  0.26208736E+02  0.26211878E+02  0.26215020E+02


     MPI for site:
     number of site groups     =          128
     #procs in a site group    =            1
     this proc in a site group =            0
     the root in a site group  =            0
     this site group           =            0
     inter-site group comm.    =           20
     intra-site group comm.    =            2
     total number of sites     =           36
     starting index of sites   =            1
     ending index of sites     =            1


     MPI for task:
     #procs in a task group    =          128
     this proc in a task group =            0
     the root in a task group  =            0
     task group comm.          =           20
     total number of vectors   =         8345
     starting index of vectors =            1
     ending index of vectors   =           66
     lengths of vectors        = 
        66   66   66   66   66   66   66   66   66   66
        66   66   66   66   66   66   66   66   66   66
        66   66   66   66   66   65   65   65   65   65
        65   65   65   65   65   65   65   65   65   65
        65   65   65   65   65   65   65   65   65   65
        65   65   65   65   65   65   65   65   65   65
        65   65   65   65   65   65   65   65   65   65
        65   65   65   65   65   65   65   65   65   65
        65   65   65   65   65   65   65   65   65   65
        65   65   65   65   65   65   65   65   65   65
        65   65   65   65   65   65   65   65   65   65
        65   65   65   65   65   65   65   65   65   65
        65   65   65   65   65   65   65   65
     displacement of vectors   = 
         0   66  132  198  264  330  396  462  528  594
       660  726  792  858  924  990 1056 1122 1188 1254
      1320 1386 1452 1518 1584 1650 1715 1780 1845 1910
      1975 2040 2105 2170 2235 2300 2365 2430 2495 2560
      2625 2690 2755 2820 2885 2950 3015 3080 3145 3210
      3275 3340 3405 3470 3535 3600 3665 3730 3795 3860
      3925 3990 4055 4120 4185 4250 4315 4380 4445 4510
      4575 4640 4705 4770 4835 4900 4965 5030 5095 5160
      5225 5290 5355 5420 5485 5550 5615 5680 5745 5810
      5875 5940 6005 6070 6135 6200 6265 6330 6395 6460
      6525 6590 6655 6720 6785 6850 6915 6980 7045 7110
      7175 7240 7305 7370 7435 7500 7565 7630 7695 7760
      7825 7890 7955 8020 8085 8150 8215 8280


     Correlation function is read from file


     1D-RISM Calculation

     iter. #     1  RMS(g-h-1)= 9.995E-09  nbox=  0  T=  300.00K

     End of 1D-RISM calculation


     convergence has been achieved in     1 iterations


     Chemical potential of solvation

     H2O        H2O        Closure      0.106068E+01 kcal/mol
                           GaussFluct  -0.737993E+01 kcal/mol

                K+         Closure     -0.288345E+00 kcal/mol
                           GaussFluct  -0.358438E+00 kcal/mol

                OH-        Closure     -0.764259E+00 kcal/mol
                           GaussFluct  -0.855991E+00 kcal/mol

                Total      Closure      0.808077E-02 kcal/mol
                           GaussFluct  -0.859435E+01 kcal/mol

     K+         H2O        Closure     -0.160051E+02 kcal/mol
                           GaussFluct  -0.198958E+02 kcal/mol

                K+         Closure      0.351561E+06 kcal/mol
                           GaussFluct   0.351561E+06 kcal/mol

                OH-        Closure     -0.351612E+06 kcal/mol
                           GaussFluct  -0.351612E+06 kcal/mol

                Total      Closure     -0.668098E+02 kcal/mol
                           GaussFluct  -0.707592E+02 kcal/mol

     OH-        H2O        Closure     -0.424217E+02 kcal/mol
                           GaussFluct  -0.475134E+02 kcal/mol

                K+         Closure     -0.351612E+06 kcal/mol
                           GaussFluct  -0.351612E+06 kcal/mol

                OH-        Closure      0.351561E+06 kcal/mol
                           GaussFluct   0.351561E+06 kcal/mol

                Total      Closure     -0.934347E+02 kcal/mol
                           GaussFluct  -0.986502E+02 kcal/mol

 
     Parallelization info
     --------------------
     sticks:   dense  smooth     PW     G-vecs:    dense   smooth      PW
     Min          40      16      4                16136     4064     568
     Max          41      17      5                16171     4100     615
     Sum        9661    3865   1057              3875677   980529  140539
 

     Title: 
     Cu-vib                                                                     


     bravais-lattice index     =            0
     lattice parameter (alat)  =      14.9832  a.u.
     unit-cell volume          =   14695.9939 (a.u.)^3
     number of atoms/cell      =           38
     number of atomic types    =            3
     number of electrons       =       406.00
     number of Kohn-Sham states=          244
     kinetic-energy cutoff     =      62.4738  Ry
     charge density cutoff     =     624.7385  Ry
     convergence threshold     =      7.3E-12
     mixing beta               =       0.3333
     number of iterations used =           12  plain     mixing
     Exchange-correlation      = VDW-DF2 ( 1  4 13  0 2 0)

     Effective Screening Medium Method
     =================================
     Boundary Conditions: Vacuum-Slab-Vacuum
     total charge in unit cell        =   0.0000
     grid points for fit at edges     =        4 
 

     celldm(1)=  14.983209  celldm(2)=   0.000000  celldm(3)=   0.000000
     celldm(4)=   0.000000  celldm(5)=   0.000000  celldm(6)=   0.000000

     crystal axes: (cart. coord. in units of alat)
               a(1) = (   1.000000   0.000000   0.000000 )  
               a(2) = (   0.500000   0.866025   0.000000 )  
               a(3) = (   0.000000   0.000000   5.044917 )  

     reciprocal axes: (cart. coord. in units 2 pi/alat)
               b(1) = (  1.000000 -0.577351  0.000000 )  
               b(2) = (  0.000000  1.154701  0.000000 )  
               b(3) = (  0.000000  0.000000  0.198219 )  


     PseudoPot. # 1 for Cu read from file:
     /work/gf93/f93007/QE/pseudo/Cu.pbe-dn-kjpaw_psl.1.0.0.UPF
     MD5 check sum: 67c40f9e1593dc2d139023e70404cc2a
     Pseudo is Projector augmented-wave + core cor, Zval = 11.0
     Generated using "atomic" code by A. Dal Corso  v.6.1 svn rev. 13369
     Shape of augmentation charge: PSQ
     Using radial grid of 1199 points,  6 beta functions with: 
                l(1) =   0
                l(2) =   0
                l(3) =   1
                l(4) =   1
                l(5) =   2
                l(6) =   2
     Q(r) pseudized with 0 coefficients 


     PseudoPot. # 2 for  C read from file:
     /work/gf93/f93007/QE/pseudo/C.pbe-n-kjpaw_psl.1.0.0.UPF
     MD5 check sum: 92a742b3ac0ce1af44b5aa3f9352ca21
     Pseudo is Projector augmented-wave + core cor, Zval =  4.0
     Generated using "atomic" code by A. Dal Corso  v.6.1 svn rev. 13369
     Shape of augmentation charge: PSQ
     Using radial grid of 1073 points,  4 beta functions with: 
                l(1) =   0
                l(2) =   0
                l(3) =   1
                l(4) =   1
     Q(r) pseudized with 0 coefficients 


     PseudoPot. # 3 for  O read from file:
     /work/gf93/f93007/QE/pseudo/O.pbe-n-kjpaw_psl.1.0.0.UPF
     MD5 check sum: c61d840054b6bba219e553541e327118
     Pseudo is Projector augmented-wave + core cor, Zval =  6.0
     Generated using "atomic" code by A. Dal Corso  v.6.1 svn rev. 13369
     Shape of augmentation charge: PSQ
     Using radial grid of 1095 points,  4 beta functions with: 
                l(1) =   0
                l(2) =   0
                l(3) =   1
                l(4) =   1
     Q(r) pseudized with 0 coefficients 


     vdW kernel table read from file vdW_kernel_table
     MD5 check sum: 6d69797d2e858e93e031fb7d16d30e50

     atomic species   valence    mass     pseudopotential
        Cu            11.00    63.54600     Cu( 1.00)
        C              4.00    12.01100      C( 1.00)
        O              6.00    15.99900      O( 1.00)

     No symmetry found


                                    s                        frac. trans.

      isym =  1     identity                                     

 cryst.   s( 1) = (     1          0          0      )
                  (     0          1          0      )
                  (     0          0          1      )

 cart.    s( 1) = (  1.0000000  0.0000000  0.0000000 )
                  (  0.0000000  1.0000000  0.0000000 )
                  (  0.0000000  0.0000000  1.0000000 )


   Cartesian axes

     site n.     atom                  positions (alat units)
         1           Cu  tau(   1) = (   0.0000000   0.0000000  -0.8248888  )
         2           Cu  tau(   2) = (   0.3333333   0.0000000  -0.8248888  )
         3           Cu  tau(   3) = (   0.6666667   0.0000000  -0.8248888  )
         4           Cu  tau(   4) = (   0.1666667   0.2886751  -0.8248888  )
         5           Cu  tau(   5) = (   0.5000000   0.2886751  -0.8248888  )
         6           Cu  tau(   6) = (   0.8333333   0.2886751  -0.8248888  )
         7           Cu  tau(   7) = (   0.3333333   0.5773503  -0.8248888  )
         8           Cu  tau(   8) = (   0.6666667   0.5773503  -0.8248888  )
         9           Cu  tau(   9) = (   1.0000000   0.5773503  -0.8248888  )
        10           Cu  tau(  10) = (   0.1679527   0.0969677  -0.5550278  )
        11           Cu  tau(  11) = (   0.5000001   0.0963555  -0.5546924  )
        12           Cu  tau(  12) = (   0.8320475   0.0969677  -0.5550278  )
        13           Cu  tau(  13) = (   0.3334463   0.3848350  -0.5546924  )
        14           Cu  tau(  14) = (   0.6665540   0.3848351  -0.5546924  )
        15           Cu  tau(  15) = (   1.0000000   0.3851225  -0.5554971  )
        16           Cu  tau(  16) = (   0.5000002   0.6720902  -0.5550277  )
        17           Cu  tau(  17) = (   0.8335259   0.6734639  -0.5554970  )
        18           Cu  tau(  18) = (   1.1664742   0.6734639  -0.5554970  )
        19           Cu  tau(  19) = (   0.0000002   0.1919045  -0.2895402  )
        20           Cu  tau(  20) = (   0.3359748   0.1939752  -0.2811846  )
        21           Cu  tau(  21) = (   0.6640256   0.1939752  -0.2811846  )
        22           Cu  tau(  22) = (   0.1667941   0.4810516  -0.2872685  )
        23           Cu  tau(  23) = (   0.5000002   0.4780753  -0.2811846  )
        24           Cu  tau(  24) = (   0.8332061   0.4810517  -0.2872684  )
        25           Cu  tau(  25) = (   0.3338062   0.7700731  -0.2895404  )
        26           Cu  tau(  26) = (   0.6661942   0.7700731  -0.2895403  )
        27           Cu  tau(  27) = (   1.0000001   0.7699472  -0.2872685  )
        28           Cu  tau(  28) = (   0.0000000   0.0000002  -0.0207473  )
        29           Cu  tau(  29) = (   0.3317716  -0.0034666  -0.0198287  )
        30           Cu  tau(  30) = (   0.6682285  -0.0034665  -0.0198288  )
        31           Cu  tau(  31) = (   0.1628835   0.2890560  -0.0198289  )
        32           Cu  tau(  32) = (   0.5000001   0.2886752   0.0000000  )
        33           Cu  tau(  33) = (   0.8371164   0.2890560  -0.0198289  )
        34           Cu  tau(  34) = (   0.3311120   0.5804359  -0.0198289  )
        35           Cu  tau(  35) = (   0.6688881   0.5804359  -0.0198288  )
        36           Cu  tau(  36) = (   1.0000000   0.5773501  -0.0191733  )
        37           C   tau(  37) = (   0.4999994   0.2886747   0.2397149  )
        38           O   tau(  38) = (   0.4999989   0.2874132   0.3848034  )

   Crystallographic axes

     site n.     atom                  positions (cryst. coord.)
         1           Cu  tau(   1) = (  0.0000000  0.0000000 -0.1635089  )
         2           Cu  tau(   2) = (  0.3333333  0.0000000 -0.1635089  )
         3           Cu  tau(   3) = (  0.6666667  0.0000000 -0.1635089  )
         4           Cu  tau(   4) = ( -0.0000001  0.3333335 -0.1635089  )
         5           Cu  tau(   5) = (  0.3333333  0.3333335 -0.1635089  )
         6           Cu  tau(   6) = (  0.6666666  0.3333335 -0.1635089  )
         7           Cu  tau(   7) = ( -0.0000002  0.6666670 -0.1635089  )
         8           Cu  tau(   8) = (  0.3333332  0.6666670 -0.1635089  )
         9           Cu  tau(   9) = (  0.6666665  0.6666670 -0.1635089  )
        10           Cu  tau(  10) = (  0.1119684  0.1119687 -0.1100172  )
        11           Cu  tau(  11) = (  0.4443691  0.1112618 -0.1099508  )
        12           Cu  tau(  12) = (  0.7760631  0.1119687 -0.1100172  )
        13           Cu  tau(  13) = (  0.1112615  0.4443694 -0.1099508  )
        14           Cu  tau(  14) = (  0.4443692  0.4443695 -0.1099507  )
        15           Cu  tau(  15) = (  0.7776494  0.4447013 -0.1101102  )
        16           Cu  tau(  16) = (  0.1119685  0.7760633 -0.1100172  )
        17           Cu  tau(  17) = (  0.4447012  0.7776495 -0.1101102  )
        18           Cu  tau(  18) = (  0.7776494  0.7776495 -0.1101102  )
        19           Cu  tau(  19) = ( -0.1107960  0.2215923 -0.0573925  )
        20           Cu  tau(  20) = (  0.2239831  0.2239834 -0.0557362  )
        21           Cu  tau(  21) = (  0.5520338  0.2239834 -0.0557362  )
        22           Cu  tau(  22) = ( -0.1109413  0.5554709 -0.0569422  )
        23           Cu  tau(  23) = (  0.2239831  0.5520341 -0.0557362  )
        24           Cu  tau(  24) = (  0.5554707  0.5554709 -0.0569421  )
        25           Cu  tau(  25) = ( -0.1107959  0.8892042 -0.0573925  )
        26           Cu  tau(  26) = (  0.2215921  0.8892042 -0.0573925  )
        27           Cu  tau(  27) = (  0.5554707  0.8890589 -0.0569422  )
        28           Cu  tau(  28) = ( -0.0000001  0.0000002 -0.0041125  )
        29           Cu  tau(  29) = (  0.3337730 -0.0040029 -0.0039304  )
        30           Cu  tau(  30) = (  0.6702299 -0.0040028 -0.0039305  )
        31           Cu  tau(  31) = ( -0.0040031  0.3337733 -0.0039305  )
        32           Cu  tau(  32) = (  0.3333333  0.3333336  0.0000000  )
        33           Cu  tau(  33) = (  0.6702298  0.3337733 -0.0039305  )
        34           Cu  tau(  34) = ( -0.0040030  0.6702300 -0.0039305  )
        35           Cu  tau(  35) = (  0.3337731  0.6702300 -0.0039305  )
        36           Cu  tau(  36) = (  0.6666666  0.6666667 -0.0038005  )
        37           C   tau(  37) = (  0.3333329  0.3333330  0.0475161  )
        38           O   tau(  38) = (  0.3340608  0.3318763  0.0762755  )

     number of k points=    34  Marzari-Vanderbilt smearing, width (Ry)=  0.0073
                       cart. coord. in units 2pi/alat
        k(    1) = (   0.0000000   0.0000000   0.0000000), wk =   0.0312500
        k(    2) = (   0.0000000   0.1443376   0.0000000), wk =   0.0625000
        k(    3) = (   0.0000000   0.2886753   0.0000000), wk =   0.0625000
        k(    4) = (   0.0000000   0.4330129   0.0000000), wk =   0.0625000
        k(    5) = (   0.0000000  -0.5773505   0.0000000), wk =   0.0312500
        k(    6) = (   0.1250000  -0.0721688   0.0000000), wk =   0.0625000
        k(    7) = (   0.1250000   0.0721688   0.0000000), wk =   0.0625000
        k(    8) = (   0.1250000   0.2165065   0.0000000), wk =   0.0625000
        k(    9) = (   0.1250000   0.3608441   0.0000000), wk =   0.0625000
        k(   10) = (   0.1250000  -0.6495194   0.0000000), wk =   0.0625000
        k(   11) = (   0.1250000  -0.5051817   0.0000000), wk =   0.0625000
        k(   12) = (   0.1250000  -0.3608441   0.0000000), wk =   0.0625000
        k(   13) = (   0.1250000  -0.2165065   0.0000000), wk =   0.0625000
        k(   14) = (   0.2500000  -0.1443376   0.0000000), wk =   0.0625000
        k(   15) = (   0.2500000   0.0000000   0.0000000), wk =   0.0625000
        k(   16) = (   0.2500000   0.1443376   0.0000000), wk =   0.0625000
        k(   17) = (   0.2500000   0.2886753   0.0000000), wk =   0.0625000
        k(   18) = (   0.2500000  -0.7216882   0.0000000), wk =   0.0625000
        k(   19) = (   0.2500000  -0.5773505   0.0000000), wk =   0.0625000
        k(   20) = (   0.2500000  -0.4330129   0.0000000), wk =   0.0625000
        k(   21) = (   0.2500000  -0.2886753   0.0000000), wk =   0.0625000
        k(   22) = (   0.3750000  -0.2165065   0.0000000), wk =   0.0625000
        k(   23) = (   0.3750000  -0.0721688   0.0000000), wk =   0.0625000
        k(   24) = (   0.3750000   0.0721688   0.0000000), wk =   0.0625000
        k(   25) = (   0.3750000   0.2165065   0.0000000), wk =   0.0625000
        k(   26) = (   0.3750000  -0.7938570   0.0000000), wk =   0.0625000
        k(   27) = (   0.3750000  -0.6495194   0.0000000), wk =   0.0625000
        k(   28) = (   0.3750000  -0.5051817   0.0000000), wk =   0.0625000
        k(   29) = (   0.3750000  -0.3608441   0.0000000), wk =   0.0625000
        k(   30) = (  -0.5000000   0.2886753   0.0000000), wk =   0.0312500
        k(   31) = (  -0.5000000   0.4330129   0.0000000), wk =   0.0625000
        k(   32) = (  -0.5000000   0.5773505   0.0000000), wk =   0.0625000
        k(   33) = (  -0.5000000   0.7216882   0.0000000), wk =   0.0625000
        k(   34) = (  -0.5000000  -0.2886753   0.0000000), wk =   0.0312500

                       cryst. coord.
        k(    1) = (   0.0000000   0.0000000   0.0000000), wk =   0.0312500
        k(    2) = (   0.0000000   0.1250000   0.0000000), wk =   0.0625000
        k(    3) = (   0.0000000   0.2500000   0.0000000), wk =   0.0625000
        k(    4) = (   0.0000000   0.3750000   0.0000000), wk =   0.0625000
        k(    5) = (   0.0000000  -0.5000000   0.0000000), wk =   0.0312500
        k(    6) = (   0.1250000   0.0000000   0.0000000), wk =   0.0625000
        k(    7) = (   0.1250000   0.1250000   0.0000000), wk =   0.0625000
        k(    8) = (   0.1250000   0.2500000   0.0000000), wk =   0.0625000
        k(    9) = (   0.1250000   0.3750000   0.0000000), wk =   0.0625000
        k(   10) = (   0.1250000  -0.5000000   0.0000000), wk =   0.0625000
        k(   11) = (   0.1250000  -0.3750000   0.0000000), wk =   0.0625000
        k(   12) = (   0.1250000  -0.2500000   0.0000000), wk =   0.0625000
        k(   13) = (   0.1250000  -0.1250000   0.0000000), wk =   0.0625000
        k(   14) = (   0.2500000   0.0000000   0.0000000), wk =   0.0625000
        k(   15) = (   0.2500000   0.1250000   0.0000000), wk =   0.0625000
        k(   16) = (   0.2500000   0.2500000   0.0000000), wk =   0.0625000
        k(   17) = (   0.2500000   0.3750000   0.0000000), wk =   0.0625000
        k(   18) = (   0.2500000  -0.5000000   0.0000000), wk =   0.0625000
        k(   19) = (   0.2500000  -0.3750000   0.0000000), wk =   0.0625000
        k(   20) = (   0.2500000  -0.2500000   0.0000000), wk =   0.0625000
        k(   21) = (   0.2500000  -0.1250000   0.0000000), wk =   0.0625000
        k(   22) = (   0.3750000   0.0000000   0.0000000), wk =   0.0625000
        k(   23) = (   0.3750000   0.1250000   0.0000000), wk =   0.0625000
        k(   24) = (   0.3750000   0.2500000   0.0000000), wk =   0.0625000
        k(   25) = (   0.3750000   0.3750000   0.0000000), wk =   0.0625000
        k(   26) = (   0.3750000  -0.5000000   0.0000000), wk =   0.0625000
        k(   27) = (   0.3750000  -0.3750000   0.0000000), wk =   0.0625000
        k(   28) = (   0.3750000  -0.2500000   0.0000000), wk =   0.0625000
        k(   29) = (   0.3750000  -0.1250000   0.0000000), wk =   0.0625000
        k(   30) = (  -0.5000000   0.0000000   0.0000000), wk =   0.0312500
        k(   31) = (  -0.5000000   0.1250000   0.0000000), wk =   0.0625000
        k(   32) = (  -0.5000000   0.2500000   0.0000000), wk =   0.0625000
        k(   33) = (  -0.5000000   0.3750000   0.0000000), wk =   0.0625000
        k(   34) = (  -0.5000000  -0.5000000   0.0000000), wk =   0.0312500

     Dense  grid:  3875677 G-vectors     FFT dimensions: ( 120, 120, 625)

     Smooth grid:   980529 G-vectors     FFT dimensions: (  75,  75, 384)

     Estimated max dynamical RAM per process >     140.99MB

     Estimated total allocated dynamical RAM >   33838.49MB

     Solute:
       # atom     E (kcal/mol)  S (angs)
       1  Cu      1.00000000    3.00000000    given
       2  Cu      1.00000000    3.00000000    given
       3  Cu      1.00000000    3.00000000    given
       4  Cu      1.00000000    3.00000000    given
       5  Cu      1.00000000    3.00000000    given
       6  Cu      1.00000000    3.00000000    given
       7  Cu      1.00000000    3.00000000    given
       8  Cu      1.00000000    3.00000000    given
       9  Cu      1.00000000    3.00000000    given
      10  Cu      1.00000000    3.00000000    given
      11  Cu      1.00000000    3.00000000    given
      12  Cu      1.00000000    3.00000000    given
      13  Cu      1.00000000    3.00000000    given
      14  Cu      1.00000000    3.00000000    given
      15  Cu      1.00000000    3.00000000    given
      16  Cu      1.00000000    3.00000000    given
      17  Cu      1.00000000    3.00000000    given
      18  Cu      1.00000000    3.00000000    given
      19  Cu      1.00000000    3.00000000    given
      20  Cu      1.00000000    3.00000000    given
      21  Cu      1.00000000    3.00000000    given
      22  Cu      1.00000000    3.00000000    given
      23  Cu      1.00000000    3.00000000    given
      24  Cu      1.00000000    3.00000000    given
      25  Cu      1.00000000    3.00000000    given
      26  Cu      1.00000000    3.00000000    given
      27  Cu      1.00000000    3.00000000    given
      28  Cu      1.00000000    3.00000000    given
      29  Cu      1.00000000    3.00000000    given
      30  Cu      1.00000000    3.00000000    given
      31  Cu      1.00000000    3.00000000    given
      32  Cu      1.00000000    3.00000000    given
      33  Cu      1.00000000    3.00000000    given
      34  Cu      1.00000000    3.00000000    given
      35  Cu      1.00000000    3.00000000    given
      36  Cu      1.00000000    3.00000000    given
      37  C       0.07000000    3.55000000    OPLS-AA
      38  O       0.17000000    3.00000000    OPLS-AA

     Wall:
       Density =    0.01000000  bohr^-3
       E       =    0.10000000  kcal/mol
       S       =    4.00000000  angs

     L.J. cutoff radius =       5.0000  S


     Laue-RISM info
     --------------
     closure equation        =           KH
     temperature             =     300.0000  kelvin
     coulomb smearing radius =       2.0000  bohr
     number of solvent sites =            6
     solvent sites           =    O/h2o   H/h2o   L/h2o       K
     solvent sites           =     O/oh    H/oh
     #R-grids in local       =        11250
     #Rz-grids (unit-cell)   =          384
     #Rz-grids (expand-cell) =          720
     #G-grids in local       =         4081
     #Gxy-grids in local     =           17
     #Gxy-shells in local    =           17
     number of iterations    =        10000
     convergence threshold   =      1.0E-06
     convergence level       =       0.8000
     size of MDIIS           =           20
     step of MDIIS           =       0.8000
     solvent cutoff          =     249.8954  Ry
     Custom grid:   980529 G-vectors     FFT dimensions: (  75,  75, 384)

     Boundary Conditions        : Vacuum-Slab-Solvent
     unit-cell (in bohr)        : [ -37.794523  37.794523]
     expand-cell (in bohr)      : [ -37.794523 103.934937]
     solvent of right (in bohr) : [  -8.267552 103.934937]
     buffer  of right (in bohr) : [ -18.109875  -8.267552]
     Gxy = 0 of right (in bohr) : [ -18.109875  82.872365]
     repulsive wall (in bohr)   : [  -Infinity -10.486273]
     reference of potential     : right-hand side
     #grids to fit at edges of unit-cell =    4
     Laue grid:     3865 Gxy-vectors     FFT dimensions: (  75,  75, 720)


     MPI for site:
     number of site groups     =            1
     #procs in a site group    =          240
     this proc in a site group =            0
     the root in a site group  =            0
     this site group           =            0
     inter-site group comm.    =           23
     intra-site group comm.    =            5
     total number of sites     =            6
     starting index of sites   =            1
     ending index of sites     =            6


     MPI for task:
     #procs in a task group    =          240
     this proc in a task group =            0
     the root in a task group  =            0
     task group comm.          =            5


     Initial potential from superposition of free atoms
     Check: negative starting charge=   -0.001647

     starting charge  405.99177, renormalised to  406.00000

     Correlation function is read from file


     negative rho (up, down):  1.648E-03 0.000E+00


     %%%%%%%%%%%%%%%%%%%%%%%%%%%%%%%%%%%%%%%%%%%%%%%%%%%%%%%%%%%%%%%%%%%%%%%%
     %                                                                      %
     % You are using vdW-DF, which was implemented by the Thonhauser group. %
     % Please cite the following two papers that made this development      %
     % possible and the two reviews that describe the various versions:     %
     %                                                                      %
     %   T. Thonhauser et al., PRL 115, 136402 (2015).                      %
     %   T. Thonhauser et al., PRB 76, 125112 (2007).                       %
     %   K. Berland et al., Rep. Prog. Phys. 78, 066501 (2015).             %
     %   D.C. Langreth et al., J. Phys.: Condens. Matter 21, 084203 (2009). %
     %                                                                      %
     %                                                                      %
     % If you are calculating the stress with vdW-DF, please also cite:     %
     %                                                                      %
     %   R. Sabatini et al., J. Phys.: Condens. Matter 24, 424209 (2012).   %
     %                                                                      %
     %%%%%%%%%%%%%%%%%%%%%%%%%%%%%%%%%%%%%%%%%%%%%%%%%%%%%%%%%%%%%%%%%%%%%%%%


     Carrying out vdW-DF run using the following parameters:
     Nqs    =  20  Npoints =  1024  r_max =  100.000
     q_mesh =  0.00001000  0.04494208  0.09755937  0.15916263
               0.23128650  0.31572767  0.41458969  0.53033537
               0.66584808  0.82450364  1.01025438  1.22772762
               1.48234092  1.78043706  2.12944203  2.53805004
               3.01644009  3.57652955  4.23227104  5.00000000


     -----------------------------------------------
     Non-local corr. energy    =      22.28442056 Ry
     -----------------------------------------------


     Laue-RISM Calculation

     convergence threshold    = 6.310E-06
     iter. #     1  RMS(g-h-1)= 5.961E-02  nbox=  0
     iter. #     2  RMS(g-h-1)= 4.586E-02  nbox=  1
     iter. #     3  RMS(g-h-1)= 2.805E-02  nbox=  2
     iter. #     4  RMS(g-h-1)= 1.166E-02  nbox=  3
     iter. #     5  RMS(g-h-1)= 1.009E-02  nbox=  4
     iter. #     6  RMS(g-h-1)= 8.047E-03  nbox=  5
     iter. #     7  RMS(g-h-1)= 6.727E-03  nbox=  6
     iter. #     8  RMS(g-h-1)= 6.117E-03  nbox=  7
     iter. #     9  RMS(g-h-1)= 5.812E-03  nbox=  8
     iter. #    10  RMS(g-h-1)= 5.346E-03  nbox=  9
     iter. #    11  RMS(g-h-1)= 4.969E-03  nbox= 10
     iter. #    12  RMS(g-h-1)= 4.611E-03  nbox= 11
     iter. #    13  RMS(g-h-1)= 4.368E-03  nbox= 12
     iter. #    14  RMS(g-h-1)= 4.136E-03  nbox= 13
     iter. #    15  RMS(g-h-1)= 3.813E-03  nbox= 14
     iter. #    16  RMS(g-h-1)= 3.507E-03  nbox= 15
     iter. #    17  RMS(g-h-1)= 3.279E-03  nbox= 16
     iter. #    18  RMS(g-h-1)= 2.945E-03  nbox= 17
     iter. #    19  RMS(g-h-1)= 2.573E-03  nbox= 18
     iter. #    20  RMS(g-h-1)= 2.302E-03  nbox= 19
     iter. #    21  RMS(g-h-1)= 2.156E-03  nbox= 20
     iter. #    22  RMS(g-h-1)= 1.957E-03  nbox= 20
     iter. #    23  RMS(g-h-1)= 1.813E-03  nbox= 20
     iter. #    24  RMS(g-h-1)= 1.735E-03  nbox= 20
     iter. #    25  RMS(g-h-1)= 1.650E-03  nbox= 20
     iter. #    26  RMS(g-h-1)= 1.559E-03  nbox= 20
     iter. #    27  RMS(g-h-1)= 1.491E-03  nbox= 20
     iter. #    28  RMS(g-h-1)= 1.465E-03  nbox= 20
     iter. #    29  RMS(g-h-1)= 1.410E-03  nbox= 20
     iter. #    30  RMS(g-h-1)= 1.357E-03  nbox= 20
     iter. #    31  RMS(g-h-1)= 1.325E-03  nbox= 20
     iter. #    32  RMS(g-h-1)= 1.276E-03  nbox= 20
     iter. #    33  RMS(g-h-1)= 1.230E-03  nbox= 20
     iter. #    34  RMS(g-h-1)= 1.191E-03  nbox= 20
     iter. #    35  RMS(g-h-1)= 1.145E-03  nbox= 20
     iter. #    36  RMS(g-h-1)= 1.111E-03  nbox= 20
     iter. #    37  RMS(g-h-1)= 1.064E-03  nbox= 20
     iter. #    38  RMS(g-h-1)= 1.046E-03  nbox= 20
     iter. #    39  RMS(g-h-1)= 1.006E-03  nbox= 20
     iter. #    40  RMS(g-h-1)= 9.952E-04  nbox= 20
     iter. #    41  RMS(g-h-1)= 9.592E-04  nbox= 20
     iter. #    42  RMS(g-h-1)= 9.489E-04  nbox= 20
     iter. #    43  RMS(g-h-1)= 9.403E-04  nbox=  2
     iter. #    44  RMS(g-h-1)= 9.270E-04  nbox=  3
     iter. #    45  RMS(g-h-1)= 9.092E-04  nbox=  4
     iter. #    46  RMS(g-h-1)= 8.934E-04  nbox=  5
     iter. #    47  RMS(g-h-1)= 8.829E-04  nbox=  6
     iter. #    48  RMS(g-h-1)= 8.661E-04  nbox=  7
     iter. #    49  RMS(g-h-1)= 8.633E-04  nbox=  8
     iter. #    50  RMS(g-h-1)= 8.430E-04  nbox=  9
     iter. #    51  RMS(g-h-1)= 8.298E-04  nbox= 10
     iter. #    52  RMS(g-h-1)= 8.203E-04  nbox= 11
     iter. #    53  RMS(g-h-1)= 8.052E-04  nbox= 12
     iter. #    54  RMS(g-h-1)= 8.141E-04  nbox= 13
     iter. #    55  RMS(g-h-1)= 7.835E-04  nbox= 14
     iter. #    56  RMS(g-h-1)= 7.700E-04  nbox= 15
     iter. #    57  RMS(g-h-1)= 7.532E-04  nbox= 16
     iter. #    58  RMS(g-h-1)= 7.358E-04  nbox= 17
     iter. #    59  RMS(g-h-1)= 7.319E-04  nbox=  2
     iter. #    60  RMS(g-h-1)= 7.133E-04  nbox=  3
     iter. #    61  RMS(g-h-1)= 6.959E-04  nbox=  4
     iter. #    62  RMS(g-h-1)= 6.843E-04  nbox=  5
     iter. #    63  RMS(g-h-1)= 6.723E-04  nbox=  6
     iter. #    64  RMS(g-h-1)= 6.573E-04  nbox=  7
     iter. #    65  RMS(g-h-1)= 6.410E-04  nbox=  8
     iter. #    66  RMS(g-h-1)= 6.234E-04  nbox=  9
     iter. #    67  RMS(g-h-1)= 6.163E-04  nbox= 10
     iter. #    68  RMS(g-h-1)= 5.999E-04  nbox= 11
     iter. #    69  RMS(g-h-1)= 6.023E-04  nbox= 12
     iter. #    70  RMS(g-h-1)= 5.866E-04  nbox= 13
     iter. #    71  RMS(g-h-1)= 5.788E-04  nbox= 14
     iter. #    72  RMS(g-h-1)= 5.688E-04  nbox= 15
     iter. #    73  RMS(g-h-1)= 5.646E-04  nbox= 16
     iter. #    74  RMS(g-h-1)= 5.557E-04  nbox= 17
     iter. #    75  RMS(g-h-1)= 5.539E-04  nbox=  2
     iter. #    76  RMS(g-h-1)= 5.452E-04  nbox=  3
     iter. #    77  RMS(g-h-1)= 5.375E-04  nbox=  4
     iter. #    78  RMS(g-h-1)= 5.315E-04  nbox=  5
     iter. #    79  RMS(g-h-1)= 5.223E-04  nbox=  6
     iter. #    80  RMS(g-h-1)= 5.073E-04  nbox=  7
     iter. #    81  RMS(g-h-1)= 4.842E-04  nbox=  8
     iter. #    82  RMS(g-h-1)= 4.983E-04  nbox=  9
     iter. #    83  RMS(g-h-1)= 4.604E-04  nbox= 10
     iter. #    84  RMS(g-h-1)= 4.470E-04  nbox= 11
     iter. #    85  RMS(g-h-1)= 4.371E-04  nbox= 12
     iter. #    86  RMS(g-h-1)= 4.286E-04  nbox= 13
     iter. #    87  RMS(g-h-1)= 4.243E-04  nbox= 14
     iter. #    88  RMS(g-h-1)= 4.184E-04  nbox= 15
     iter. #    89  RMS(g-h-1)= 4.139E-04  nbox= 16
     iter. #    90  RMS(g-h-1)= 4.099E-04  nbox= 17
     iter. #    91  RMS(g-h-1)= 4.072E-04  nbox=  2
     iter. #    92  RMS(g-h-1)= 3.979E-04  nbox=  3
     iter. #    93  RMS(g-h-1)= 3.884E-04  nbox=  4
     iter. #    94  RMS(g-h-1)= 3.785E-04  nbox=  5
     iter. #    95  RMS(g-h-1)= 3.684E-04  nbox=  6
     iter. #    96  RMS(g-h-1)= 3.634E-04  nbox=  7
     iter. #    97  RMS(g-h-1)= 3.571E-04  nbox=  8
     iter. #    98  RMS(g-h-1)= 3.516E-04  nbox=  9
     iter. #    99  RMS(g-h-1)= 3.459E-04  nbox= 10
     iter. #   100  RMS(g-h-1)= 3.392E-04  nbox= 11
     iter. #   101  RMS(g-h-1)= 3.341E-04  nbox= 12
     iter. #   102  RMS(g-h-1)= 3.302E-04  nbox= 13
     iter. #   103  RMS(g-h-1)= 3.254E-04  nbox= 14
     iter. #   104  RMS(g-h-1)= 3.202E-04  nbox= 15
     iter. #   105  RMS(g-h-1)= 3.140E-04  nbox= 16
     iter. #   106  RMS(g-h-1)= 3.111E-04  nbox= 17
     iter. #   107  RMS(g-h-1)= 3.087E-04  nbox=  2
     iter. #   108  RMS(g-h-1)= 3.040E-04  nbox=  3
     iter. #   109  RMS(g-h-1)= 2.981E-04  nbox=  4
     iter. #   110  RMS(g-h-1)= 2.938E-04  nbox=  5
     iter. #   111  RMS(g-h-1)= 2.889E-04  nbox=  6
     iter. #   112  RMS(g-h-1)= 2.856E-04  nbox=  7
     iter. #   113  RMS(g-h-1)= 2.840E-04  nbox=  8
     iter. #   114  RMS(g-h-1)= 2.802E-04  nbox=  9
     iter. #   115  RMS(g-h-1)= 2.776E-04  nbox= 10
     iter. #   116  RMS(g-h-1)= 2.747E-04  nbox= 11
     iter. #   117  RMS(g-h-1)= 2.733E-04  nbox= 12
     iter. #   118  RMS(g-h-1)= 2.696E-04  nbox= 13
     iter. #   119  RMS(g-h-1)= 2.694E-04  nbox= 14
     iter. #   120  RMS(g-h-1)= 2.664E-04  nbox= 15
     iter. #   121  RMS(g-h-1)= 2.638E-04  nbox= 16
     iter. #   122  RMS(g-h-1)= 2.656E-04  nbox= 17
     iter. #   123  RMS(g-h-1)= 2.666E-04  nbox=  2
     iter. #   124  RMS(g-h-1)= 2.610E-04  nbox=  3
     iter. #   125  RMS(g-h-1)= 2.585E-04  nbox=  4
     iter. #   126  RMS(g-h-1)= 2.561E-04  nbox=  5
     iter. #   127  RMS(g-h-1)= 2.534E-04  nbox=  6
     iter. #   128  RMS(g-h-1)= 2.538E-04  nbox=  7
     iter. #   129  RMS(g-h-1)= 2.502E-04  nbox=  8
     iter. #   130  RMS(g-h-1)= 2.484E-04  nbox=  9
     iter. #   131  RMS(g-h-1)= 2.462E-04  nbox= 10
     iter. #   132  RMS(g-h-1)= 2.443E-04  nbox= 11
     iter. #   133  RMS(g-h-1)= 2.433E-04  nbox= 12
     iter. #   134  RMS(g-h-1)= 2.414E-04  nbox= 13
     iter. #   135  RMS(g-h-1)= 2.395E-04  nbox= 14
     iter. #   136  RMS(g-h-1)= 2.375E-04  nbox= 15
     iter. #   137  RMS(g-h-1)= 2.362E-04  nbox= 16
     iter. #   138  RMS(g-h-1)= 2.342E-04  nbox= 17
     iter. #   139  RMS(g-h-1)= 2.377E-04  nbox=  2
     iter. #   140  RMS(g-h-1)= 2.318E-04  nbox=  3
     iter. #   141  RMS(g-h-1)= 2.296E-04  nbox=  4
     iter. #   142  RMS(g-h-1)= 2.278E-04  nbox=  5
     iter. #   143  RMS(g-h-1)= 2.266E-04  nbox=  6
     iter. #   144  RMS(g-h-1)= 2.250E-04  nbox=  7
     iter. #   145  RMS(g-h-1)= 2.231E-04  nbox=  8
     iter. #   146  RMS(g-h-1)= 2.218E-04  nbox=  9
     iter. #   147  RMS(g-h-1)= 2.200E-04  nbox= 10
     iter. #   148  RMS(g-h-1)= 2.256E-04  nbox= 11
     iter. #   149  RMS(g-h-1)= 2.192E-04  nbox= 12
     iter. #   150  RMS(g-h-1)= 2.190E-04  nbox= 13
     iter. #   151  RMS(g-h-1)= 2.176E-04  nbox= 14
     iter. #   152  RMS(g-h-1)= 2.177E-04  nbox= 15
     iter. #   153  RMS(g-h-1)= 2.163E-04  nbox= 16
     iter. #   154  RMS(g-h-1)= 2.157E-04  nbox= 17
     iter. #   155  RMS(g-h-1)= 2.151E-04  nbox=  2
     iter. #   156  RMS(g-h-1)= 2.123E-04  nbox=  3
     iter. #   157  RMS(g-h-1)= 2.106E-04  nbox=  4
     iter. #   158  RMS(g-h-1)= 2.086E-04  nbox=  5
     iter. #   159  RMS(g-h-1)= 2.121E-04  nbox=  6
     iter. #   160  RMS(g-h-1)= 2.058E-04  nbox=  7
     iter. #   161  RMS(g-h-1)= 2.049E-04  nbox=  8
     iter. #   162  RMS(g-h-1)= 2.034E-04  nbox=  9
     iter. #   163  RMS(g-h-1)= 2.021E-04  nbox= 10
     iter. #   164  RMS(g-h-1)= 2.011E-04  nbox= 11
     iter. #   165  RMS(g-h-1)= 2.008E-04  nbox= 12
     iter. #   166  RMS(g-h-1)= 1.996E-04  nbox= 13
     iter. #   167  RMS(g-h-1)= 1.986E-04  nbox= 14
     iter. #   168  RMS(g-h-1)= 1.977E-04  nbox= 15
     iter. #   169  RMS(g-h-1)= 1.967E-04  nbox= 16
     iter. #   170  RMS(g-h-1)= 1.956E-04  nbox= 17
     iter. #   171  RMS(g-h-1)= 1.951E-04  nbox=  2
     iter. #   172  RMS(g-h-1)= 1.938E-04  nbox=  3
     iter. #   173  RMS(g-h-1)= 1.923E-04  nbox=  4
     iter. #   174  RMS(g-h-1)= 1.918E-04  nbox=  5
     iter. #   175  RMS(g-h-1)= 1.898E-04  nbox=  6
     iter. #   176  RMS(g-h-1)= 1.894E-04  nbox=  7
     iter. #   177  RMS(g-h-1)= 1.875E-04  nbox=  8
     iter. #   178  RMS(g-h-1)= 1.856E-04  nbox=  9
     iter. #   179  RMS(g-h-1)= 1.840E-04  nbox= 10
     iter. #   180  RMS(g-h-1)= 1.828E-04  nbox= 11
     iter. #   181  RMS(g-h-1)= 1.815E-04  nbox= 12
     iter. #   182  RMS(g-h-1)= 1.800E-04  nbox= 13
     iter. #   183  RMS(g-h-1)= 1.784E-04  nbox= 14
     iter. #   184  RMS(g-h-1)= 1.771E-04  nbox= 15
     iter. #   185  RMS(g-h-1)= 1.764E-04  nbox= 16
     iter. #   186  RMS(g-h-1)= 1.748E-04  nbox= 17
     iter. #   187  RMS(g-h-1)= 1.744E-04  nbox=  2
     iter. #   188  RMS(g-h-1)= 1.726E-04  nbox=  3
     iter. #   189  RMS(g-h-1)= 1.715E-04  nbox=  4
     iter. #   190  RMS(g-h-1)= 1.689E-04  nbox=  5
     iter. #   191  RMS(g-h-1)= 1.689E-04  nbox=  6
     iter. #   192  RMS(g-h-1)= 1.661E-04  nbox=  7
     iter. #   193  RMS(g-h-1)= 1.636E-04  nbox=  8
     iter. #   194  RMS(g-h-1)= 1.618E-04  nbox=  9
     iter. #   195  RMS(g-h-1)= 1.634E-04  nbox= 10
     iter. #   196  RMS(g-h-1)= 1.586E-04  nbox= 11
     iter. #   197  RMS(g-h-1)= 1.571E-04  nbox= 12
     iter. #   198  RMS(g-h-1)= 1.548E-04  nbox= 13
     iter. #   199  RMS(g-h-1)= 1.559E-04  nbox= 14
     iter. #   200  RMS(g-h-1)= 1.527E-04  nbox= 15
     iter. #   201  RMS(g-h-1)= 1.520E-04  nbox= 16
     iter. #   202  RMS(g-h-1)= 1.501E-04  nbox= 17
     iter. #   203  RMS(g-h-1)= 1.494E-04  nbox=  2
     iter. #   204  RMS(g-h-1)= 1.476E-04  nbox=  3
     iter. #   205  RMS(g-h-1)= 1.463E-04  nbox=  4
     iter. #   206  RMS(g-h-1)= 1.451E-04  nbox=  5
     iter. #   207  RMS(g-h-1)= 1.447E-04  nbox=  6
     iter. #   208  RMS(g-h-1)= 1.435E-04  nbox=  7
     iter. #   209  RMS(g-h-1)= 1.422E-04  nbox=  8
     iter. #   210  RMS(g-h-1)= 1.406E-04  nbox=  9
     iter. #   211  RMS(g-h-1)= 1.397E-04  nbox= 10
     iter. #   212  RMS(g-h-1)= 1.374E-04  nbox= 11
     iter. #   213  RMS(g-h-1)= 1.375E-04  nbox= 12
     iter. #   214  RMS(g-h-1)= 1.351E-04  nbox= 13
     iter. #   215  RMS(g-h-1)= 1.337E-04  nbox= 14
     iter. #   216  RMS(g-h-1)= 1.321E-04  nbox= 15
     iter. #   217  RMS(g-h-1)= 1.318E-04  nbox= 16
     iter. #   218  RMS(g-h-1)= 1.303E-04  nbox= 17
     iter. #   219  RMS(g-h-1)= 1.300E-04  nbox=  2
     iter. #   220  RMS(g-h-1)= 1.285E-04  nbox=  3
     iter. #   221  RMS(g-h-1)= 1.271E-04  nbox=  4
     iter. #   222  RMS(g-h-1)= 1.261E-04  nbox=  5
     iter. #   223  RMS(g-h-1)= 1.252E-04  nbox=  6
     iter. #   224  RMS(g-h-1)= 1.239E-04  nbox=  7
     iter. #   225  RMS(g-h-1)= 1.227E-04  nbox=  8
     iter. #   226  RMS(g-h-1)= 1.216E-04  nbox=  9
     iter. #   227  RMS(g-h-1)= 1.206E-04  nbox= 10
     iter. #   228  RMS(g-h-1)= 1.208E-04  nbox= 11
     iter. #   229  RMS(g-h-1)= 1.192E-04  nbox= 12
     iter. #   230  RMS(g-h-1)= 1.185E-04  nbox= 13
     iter. #   231  RMS(g-h-1)= 1.172E-04  nbox= 14
     iter. #   232  RMS(g-h-1)= 1.163E-04  nbox= 15
     iter. #   233  RMS(g-h-1)= 1.152E-04  nbox= 16
     iter. #   234  RMS(g-h-1)= 1.140E-04  nbox= 17
     iter. #   235  RMS(g-h-1)= 1.136E-04  nbox=  2
     iter. #   236  RMS(g-h-1)= 1.122E-04  nbox=  3
     iter. #   237  RMS(g-h-1)= 1.106E-04  nbox=  4
     iter. #   238  RMS(g-h-1)= 1.099E-04  nbox=  5
     iter. #   239  RMS(g-h-1)= 1.086E-04  nbox=  6
     iter. #   240  RMS(g-h-1)= 1.079E-04  nbox=  7
     iter. #   241  RMS(g-h-1)= 1.069E-04  nbox=  8
     iter. #   242  RMS(g-h-1)= 1.061E-04  nbox=  9
     iter. #   243  RMS(g-h-1)= 1.057E-04  nbox= 10
     iter. #   244  RMS(g-h-1)= 1.044E-04  nbox= 11
     iter. #   245  RMS(g-h-1)= 1.046E-04  nbox= 12
     iter. #   246  RMS(g-h-1)= 1.033E-04  nbox= 13
     iter. #   247  RMS(g-h-1)= 1.021E-04  nbox= 14
     iter. #   248  RMS(g-h-1)= 1.010E-04  nbox= 15
     iter. #   249  RMS(g-h-1)= 1.006E-04  nbox= 16
     iter. #   250  RMS(g-h-1)= 9.947E-05  nbox= 17
     iter. #   251  RMS(g-h-1)= 9.905E-05  nbox=  2
     iter. #   252  RMS(g-h-1)= 9.789E-05  nbox=  3
     iter. #   253  RMS(g-h-1)= 9.676E-05  nbox=  4
     iter. #   254  RMS(g-h-1)= 9.603E-05  nbox=  5
     iter. #   255  RMS(g-h-1)= 9.523E-05  nbox=  6
     iter. #   256  RMS(g-h-1)= 9.441E-05  nbox=  7
     iter. #   257  RMS(g-h-1)= 9.344E-05  nbox=  8
     iter. #   258  RMS(g-h-1)= 9.254E-05  nbox=  9
     iter. #   259  RMS(g-h-1)= 9.156E-05  nbox= 10
     iter. #   260  RMS(g-h-1)= 9.132E-05  nbox= 11
     iter. #   261  RMS(g-h-1)= 9.023E-05  nbox= 12
     iter. #   262  RMS(g-h-1)= 8.962E-05  nbox= 13
     iter. #   263  RMS(g-h-1)= 8.861E-05  nbox= 14
     iter. #   264  RMS(g-h-1)= 8.782E-05  nbox= 15
     iter. #   265  RMS(g-h-1)= 8.691E-05  nbox= 16
     iter. #   266  RMS(g-h-1)= 8.647E-05  nbox= 17
     iter. #   267  RMS(g-h-1)= 8.610E-05  nbox=  2
     iter. #   268  RMS(g-h-1)= 8.509E-05  nbox=  3
     iter. #   269  RMS(g-h-1)= 8.394E-05  nbox=  4
     iter. #   270  RMS(g-h-1)= 8.303E-05  nbox=  5
     iter. #   271  RMS(g-h-1)= 8.186E-05  nbox=  6
     iter. #   272  RMS(g-h-1)= 8.174E-05  nbox=  7
     iter. #   273  RMS(g-h-1)= 8.061E-05  nbox=  8
     iter. #   274  RMS(g-h-1)= 7.965E-05  nbox=  9
     iter. #   275  RMS(g-h-1)= 7.870E-05  nbox= 10
     iter. #   276  RMS(g-h-1)= 7.730E-05  nbox= 11
     iter. #   277  RMS(g-h-1)= 7.707E-05  nbox= 12
     iter. #   278  RMS(g-h-1)= 7.572E-05  nbox= 13
     iter. #   279  RMS(g-h-1)= 7.500E-05  nbox= 14
     iter. #   280  RMS(g-h-1)= 7.423E-05  nbox= 15
     iter. #   281  RMS(g-h-1)= 7.362E-05  nbox= 16
     iter. #   282  RMS(g-h-1)= 7.293E-05  nbox= 17
     iter. #   283  RMS(g-h-1)= 7.292E-05  nbox=  2
     iter. #   284  RMS(g-h-1)= 7.223E-05  nbox=  3
     iter. #   285  RMS(g-h-1)= 7.170E-05  nbox=  4
     iter. #   286  RMS(g-h-1)= 7.112E-05  nbox=  5
     iter. #   287  RMS(g-h-1)= 7.054E-05  nbox=  6
     iter. #   288  RMS(g-h-1)= 7.018E-05  nbox=  7
     iter. #   289  RMS(g-h-1)= 6.951E-05  nbox=  8
     iter. #   290  RMS(g-h-1)= 6.882E-05  nbox=  9
     iter. #   291  RMS(g-h-1)= 6.912E-05  nbox= 10
     iter. #   292  RMS(g-h-1)= 6.765E-05  nbox= 11
     iter. #   293  RMS(g-h-1)= 6.767E-05  nbox= 12
     iter. #   294  RMS(g-h-1)= 6.702E-05  nbox= 13
     iter. #   295  RMS(g-h-1)= 6.666E-05  nbox= 14
     iter. #   296  RMS(g-h-1)= 6.624E-05  nbox= 15
     iter. #   297  RMS(g-h-1)= 6.581E-05  nbox= 16
     iter. #   298  RMS(g-h-1)= 6.540E-05  nbox= 17
     iter. #   299  RMS(g-h-1)= 6.521E-05  nbox=  2
     iter. #   300  RMS(g-h-1)= 6.470E-05  nbox=  3
     iter. #   301  RMS(g-h-1)= 6.429E-05  nbox=  4
     iter. #   302  RMS(g-h-1)= 6.371E-05  nbox=  5
     iter. #   303  RMS(g-h-1)= 6.409E-05  nbox=  6
     iter. #   304  RMS(g-h-1)= 6.282E-05  nbox=  7
     iter. #   305  RMS(g-h-1)= 6.245E-05  nbox=  8
     iter. #   306  RMS(g-h-1)= 6.198E-05  nbox=  9
     iter. #   307  RMS(g-h-1)= 6.156E-05  nbox= 10
     iter. #   308  RMS(g-h-1)= 6.133E-05  nbox= 11
     iter. #   309  RMS(g-h-1)= 6.072E-05  nbox= 12
     iter. #   310  RMS(g-h-1)= 6.070E-05  nbox= 13
     iter. #   311  RMS(g-h-1)= 6.021E-05  nbox= 14
     iter. #   312  RMS(g-h-1)= 5.985E-05  nbox= 15
     iter. #   313  RMS(g-h-1)= 5.963E-05  nbox= 16
     iter. #   314  RMS(g-h-1)= 5.913E-05  nbox= 17
     iter. #   315  RMS(g-h-1)= 5.933E-05  nbox=  2
     iter. #   316  RMS(g-h-1)= 5.882E-05  nbox=  3
     iter. #   317  RMS(g-h-1)= 5.852E-05  nbox=  4
     iter. #   318  RMS(g-h-1)= 5.825E-05  nbox=  5
     iter. #   319  RMS(g-h-1)= 5.814E-05  nbox=  6
     iter. #   320  RMS(g-h-1)= 5.799E-05  nbox=  7
     iter. #   321  RMS(g-h-1)= 5.762E-05  nbox=  8
     iter. #   322  RMS(g-h-1)= 5.830E-05  nbox=  9
     iter. #   323  RMS(g-h-1)= 5.707E-05  nbox= 10
     iter. #   324  RMS(g-h-1)= 5.684E-05  nbox= 11
     iter. #   325  RMS(g-h-1)= 5.646E-05  nbox= 12
     iter. #   326  RMS(g-h-1)= 5.617E-05  nbox= 13
     iter. #   327  RMS(g-h-1)= 5.596E-05  nbox= 14
     iter. #   328  RMS(g-h-1)= 5.577E-05  nbox= 15
     iter. #   329  RMS(g-h-1)= 5.564E-05  nbox= 16
     iter. #   330  RMS(g-h-1)= 5.546E-05  nbox= 17
     iter. #   331  RMS(g-h-1)= 5.542E-05  nbox=  2
     iter. #   332  RMS(g-h-1)= 5.520E-05  nbox=  3
     iter. #   333  RMS(g-h-1)= 5.504E-05  nbox=  4
     iter. #   334  RMS(g-h-1)= 5.483E-05  nbox=  5
     iter. #   335  RMS(g-h-1)= 5.460E-05  nbox=  6
     iter. #   336  RMS(g-h-1)= 5.453E-05  nbox=  7
     iter. #   337  RMS(g-h-1)= 5.428E-05  nbox=  8
     iter. #   338  RMS(g-h-1)= 5.400E-05  nbox=  9
     iter. #   339  RMS(g-h-1)= 5.377E-05  nbox= 10
     iter. #   340  RMS(g-h-1)= 5.352E-05  nbox= 11
     iter. #   341  RMS(g-h-1)= 5.333E-05  nbox= 12
     iter. #   342  RMS(g-h-1)= 5.316E-05  nbox= 13
     iter. #   343  RMS(g-h-1)= 5.305E-05  nbox= 14
     iter. #   344  RMS(g-h-1)= 5.295E-05  nbox= 15
     iter. #   345  RMS(g-h-1)= 5.280E-05  nbox= 16
     iter. #   346  RMS(g-h-1)= 5.266E-05  nbox= 17
     iter. #   347  RMS(g-h-1)= 5.264E-05  nbox=  2
     iter. #   348  RMS(g-h-1)= 5.247E-05  nbox=  3
     iter. #   349  RMS(g-h-1)= 5.232E-05  nbox=  4
     iter. #   350  RMS(g-h-1)= 5.211E-05  nbox=  5
     iter. #   351  RMS(g-h-1)= 5.191E-05  nbox=  6
     iter. #   352  RMS(g-h-1)= 5.181E-05  nbox=  7
     iter. #   353  RMS(g-h-1)= 5.164E-05  nbox=  8
     iter. #   354  RMS(g-h-1)= 5.147E-05  nbox=  9
     iter. #   355  RMS(g-h-1)= 5.129E-05  nbox= 10
     iter. #   356  RMS(g-h-1)= 5.110E-05  nbox= 11
     iter. #   357  RMS(g-h-1)= 5.092E-05  nbox= 12
     iter. #   358  RMS(g-h-1)= 5.081E-05  nbox= 13
     iter. #   359  RMS(g-h-1)= 5.064E-05  nbox= 14
     iter. #   360  RMS(g-h-1)= 5.041E-05  nbox= 15
     iter. #   361  RMS(g-h-1)= 5.016E-05  nbox= 16
     iter. #   362  RMS(g-h-1)= 4.994E-05  nbox= 17
     iter. #   363  RMS(g-h-1)= 4.985E-05  nbox=  2
     iter. #   364  RMS(g-h-1)= 4.960E-05  nbox=  3
     iter. #   365  RMS(g-h-1)= 4.933E-05  nbox=  4
     iter. #   366  RMS(g-h-1)= 4.912E-05  nbox=  5
     iter. #   367  RMS(g-h-1)= 4.899E-05  nbox=  6
     iter. #   368  RMS(g-h-1)= 4.882E-05  nbox=  7
     iter. #   369  RMS(g-h-1)= 4.863E-05  nbox=  8
     iter. #   370  RMS(g-h-1)= 4.845E-05  nbox=  9
     iter. #   371  RMS(g-h-1)= 4.824E-05  nbox= 10
     iter. #   372  RMS(g-h-1)= 4.806E-05  nbox= 11
     iter. #   373  RMS(g-h-1)= 4.789E-05  nbox= 12
     iter. #   374  RMS(g-h-1)= 4.771E-05  nbox= 13
     iter. #   375  RMS(g-h-1)= 4.763E-05  nbox= 14
     iter. #   376  RMS(g-h-1)= 4.742E-05  nbox= 15
     iter. #   377  RMS(g-h-1)= 4.720E-05  nbox= 16
     iter. #   378  RMS(g-h-1)= 4.703E-05  nbox= 17
     iter. #   379  RMS(g-h-1)= 4.699E-05  nbox=  2
     iter. #   380  RMS(g-h-1)= 4.679E-05  nbox=  3
     iter. #   381  RMS(g-h-1)= 4.669E-05  nbox=  4
     iter. #   382  RMS(g-h-1)= 4.657E-05  nbox=  5
     iter. #   383  RMS(g-h-1)= 4.669E-05  nbox=  6
     iter. #   384  RMS(g-h-1)= 4.627E-05  nbox=  7
     iter. #   385  RMS(g-h-1)= 4.618E-05  nbox=  8
     iter. #   386  RMS(g-h-1)= 4.601E-05  nbox=  9
     iter. #   387  RMS(g-h-1)= 4.586E-05  nbox= 10
     iter. #   388  RMS(g-h-1)= 4.580E-05  nbox= 11
     iter. #   389  RMS(g-h-1)= 4.562E-05  nbox= 12
     iter. #   390  RMS(g-h-1)= 4.554E-05  nbox= 13
     iter. #   391  RMS(g-h-1)= 4.540E-05  nbox= 14
     iter. #   392  RMS(g-h-1)= 4.526E-05  nbox= 15
     iter. #   393  RMS(g-h-1)= 4.512E-05  nbox= 16
     iter. #   394  RMS(g-h-1)= 4.500E-05  nbox= 17
     iter. #   395  RMS(g-h-1)= 4.495E-05  nbox=  2
     iter. #   396  RMS(g-h-1)= 4.481E-05  nbox=  3
     iter. #   397  RMS(g-h-1)= 4.468E-05  nbox=  4
     iter. #   398  RMS(g-h-1)= 4.455E-05  nbox=  5
     iter. #   399  RMS(g-h-1)= 4.444E-05  nbox=  6
     iter. #   400  RMS(g-h-1)= 4.436E-05  nbox=  7
     iter. #   401  RMS(g-h-1)= 4.421E-05  nbox=  8
     iter. #   402  RMS(g-h-1)= 4.404E-05  nbox=  9
     iter. #   403  RMS(g-h-1)= 4.390E-05  nbox= 10
     iter. #   404  RMS(g-h-1)= 4.375E-05  nbox= 11
     iter. #   405  RMS(g-h-1)= 4.359E-05  nbox= 12
     iter. #   406  RMS(g-h-1)= 4.341E-05  nbox= 13
     iter. #   407  RMS(g-h-1)= 4.333E-05  nbox= 14
     iter. #   408  RMS(g-h-1)= 4.319E-05  nbox= 15
     iter. #   409  RMS(g-h-1)= 4.302E-05  nbox= 16
     iter. #   410  RMS(g-h-1)= 4.290E-05  nbox= 17
     iter. #   411  RMS(g-h-1)= 4.285E-05  nbox=  2
     iter. #   412  RMS(g-h-1)= 4.272E-05  nbox=  3
     iter. #   413  RMS(g-h-1)= 4.262E-05  nbox=  4
     iter. #   414  RMS(g-h-1)= 4.252E-05  nbox=  5
     iter. #   415  RMS(g-h-1)= 4.241E-05  nbox=  6
     iter. #   416  RMS(g-h-1)= 4.238E-05  nbox=  7
     iter. #   417  RMS(g-h-1)= 4.228E-05  nbox=  8
     iter. #   418  RMS(g-h-1)= 4.217E-05  nbox=  9
     iter. #   419  RMS(g-h-1)= 4.205E-05  nbox= 10
     iter. #   420  RMS(g-h-1)= 4.196E-05  nbox= 11
     iter. #   421  RMS(g-h-1)= 4.184E-05  nbox= 12
     iter. #   422  RMS(g-h-1)= 4.174E-05  nbox= 13
     iter. #   423  RMS(g-h-1)= 4.160E-05  nbox= 14
     iter. #   424  RMS(g-h-1)= 4.149E-05  nbox= 15
     iter. #   425  RMS(g-h-1)= 4.138E-05  nbox= 16
     iter. #   426  RMS(g-h-1)= 4.132E-05  nbox= 17
     iter. #   427  RMS(g-h-1)= 4.128E-05  nbox=  2
     iter. #   428  RMS(g-h-1)= 4.121E-05  nbox=  3
     iter. #   429  RMS(g-h-1)= 4.113E-05  nbox=  4
     iter. #   430  RMS(g-h-1)= 4.105E-05  nbox=  5
     iter. #   431  RMS(g-h-1)= 4.097E-05  nbox=  6
     iter. #   432  RMS(g-h-1)= 4.088E-05  nbox=  7
     iter. #   433  RMS(g-h-1)= 4.083E-05  nbox=  8
     iter. #   434  RMS(g-h-1)= 4.073E-05  nbox=  9
     iter. #   435  RMS(g-h-1)= 4.062E-05  nbox= 10
     iter. #   436  RMS(g-h-1)= 4.052E-05  nbox= 11
     iter. #   437  RMS(g-h-1)= 4.040E-05  nbox= 12
     iter. #   438  RMS(g-h-1)= 4.030E-05  nbox= 13
     iter. #   439  RMS(g-h-1)= 4.021E-05  nbox= 14
     iter. #   440  RMS(g-h-1)= 4.014E-05  nbox= 15
     iter. #   441  RMS(g-h-1)= 4.005E-05  nbox= 16
     iter. #   442  RMS(g-h-1)= 3.992E-05  nbox= 17
     iter. #   443  RMS(g-h-1)= 3.990E-05  nbox=  2
     iter. #   444  RMS(g-h-1)= 3.974E-05  nbox=  3
     iter. #   445  RMS(g-h-1)= 3.961E-05  nbox=  4
     iter. #   446  RMS(g-h-1)= 3.950E-05  nbox=  5
     iter. #   447  RMS(g-h-1)= 3.938E-05  nbox=  6
     iter. #   448  RMS(g-h-1)= 3.933E-05  nbox=  7
     iter. #   449  RMS(g-h-1)= 3.920E-05  nbox=  8
     iter. #   450  RMS(g-h-1)= 3.908E-05  nbox=  9
     iter. #   451  RMS(g-h-1)= 3.894E-05  nbox= 10
     iter. #   452  RMS(g-h-1)= 3.877E-05  nbox= 11
     iter. #   453  RMS(g-h-1)= 3.857E-05  nbox= 12
     iter. #   454  RMS(g-h-1)= 3.835E-05  nbox= 13
     iter. #   455  RMS(g-h-1)= 3.817E-05  nbox= 14
     iter. #   456  RMS(g-h-1)= 3.803E-05  nbox= 15
     iter. #   457  RMS(g-h-1)= 3.778E-05  nbox= 16
     iter. #   458  RMS(g-h-1)= 3.758E-05  nbox= 17
     iter. #   459  RMS(g-h-1)= 3.754E-05  nbox=  2
     iter. #   460  RMS(g-h-1)= 3.729E-05  nbox=  3
     iter. #   461  RMS(g-h-1)= 3.711E-05  nbox=  4
     iter. #   462  RMS(g-h-1)= 3.690E-05  nbox=  5
     iter. #   463  RMS(g-h-1)= 3.679E-05  nbox=  6
     iter. #   464  RMS(g-h-1)= 3.666E-05  nbox=  7
     iter. #   465  RMS(g-h-1)= 3.648E-05  nbox=  8
     iter. #   466  RMS(g-h-1)= 3.632E-05  nbox=  9
     iter. #   467  RMS(g-h-1)= 3.611E-05  nbox= 10
     iter. #   468  RMS(g-h-1)= 3.592E-05  nbox= 11
     iter. #   469  RMS(g-h-1)= 3.573E-05  nbox= 12
     iter. #   470  RMS(g-h-1)= 3.553E-05  nbox= 13
     iter. #   471  RMS(g-h-1)= 3.543E-05  nbox= 14
     iter. #   472  RMS(g-h-1)= 3.527E-05  nbox= 15
     iter. #   473  RMS(g-h-1)= 3.505E-05  nbox= 16
     iter. #   474  RMS(g-h-1)= 3.485E-05  nbox= 17
     iter. #   475  RMS(g-h-1)= 3.481E-05  nbox=  2
     iter. #   476  RMS(g-h-1)= 3.456E-05  nbox=  3
     iter. #   477  RMS(g-h-1)= 3.435E-05  nbox=  4
     iter. #   478  RMS(g-h-1)= 3.412E-05  nbox=  5
     iter. #   479  RMS(g-h-1)= 3.393E-05  nbox=  6
     iter. #   480  RMS(g-h-1)= 3.379E-05  nbox=  7
     iter. #   481  RMS(g-h-1)= 3.363E-05  nbox=  8
     iter. #   482  RMS(g-h-1)= 3.343E-05  nbox=  9
     iter. #   483  RMS(g-h-1)= 3.324E-05  nbox= 10
     iter. #   484  RMS(g-h-1)= 3.307E-05  nbox= 11
     iter. #   485  RMS(g-h-1)= 3.287E-05  nbox= 12
     iter. #   486  RMS(g-h-1)= 3.269E-05  nbox= 13
     iter. #   487  RMS(g-h-1)= 3.257E-05  nbox= 14
     iter. #   488  RMS(g-h-1)= 3.246E-05  nbox= 15
     iter. #   489  RMS(g-h-1)= 3.229E-05  nbox= 16
     iter. #   490  RMS(g-h-1)= 3.214E-05  nbox= 17
     iter. #   491  RMS(g-h-1)= 3.211E-05  nbox=  2
     iter. #   492  RMS(g-h-1)= 3.195E-05  nbox=  3
     iter. #   493  RMS(g-h-1)= 3.183E-05  nbox=  4
     iter. #   494  RMS(g-h-1)= 3.170E-05  nbox=  5
     iter. #   495  RMS(g-h-1)= 3.159E-05  nbox=  6
     iter. #   496  RMS(g-h-1)= 3.154E-05  nbox=  7
     iter. #   497  RMS(g-h-1)= 3.143E-05  nbox=  8
     iter. #   498  RMS(g-h-1)= 3.131E-05  nbox=  9
     iter. #   499  RMS(g-h-1)= 3.121E-05  nbox= 10
     iter. #   500  RMS(g-h-1)= 3.111E-05  nbox= 11
     iter. #   501  RMS(g-h-1)= 3.102E-05  nbox= 12
     iter. #   502  RMS(g-h-1)= 3.094E-05  nbox= 13
     iter. #   503  RMS(g-h-1)= 3.087E-05  nbox= 14
     iter. #   504  RMS(g-h-1)= 3.083E-05  nbox= 15
     iter. #   505  RMS(g-h-1)= 3.075E-05  nbox= 16
     iter. #   506  RMS(g-h-1)= 3.069E-05  nbox= 17
     iter. #   507  RMS(g-h-1)= 3.068E-05  nbox=  2
     iter. #   508  RMS(g-h-1)= 3.060E-05  nbox=  3
     iter. #   509  RMS(g-h-1)= 3.054E-05  nbox=  4
     iter. #   510  RMS(g-h-1)= 3.049E-05  nbox=  5
     iter. #   511  RMS(g-h-1)= 3.043E-05  nbox=  6
     iter. #   512  RMS(g-h-1)= 3.041E-05  nbox=  7
     iter. #   513  RMS(g-h-1)= 3.038E-05  nbox=  8
     iter. #   514  RMS(g-h-1)= 3.035E-05  nbox=  9
     iter. #   515  RMS(g-h-1)= 3.031E-05  nbox= 10
     iter. #   516  RMS(g-h-1)= 3.027E-05  nbox= 11
     iter. #   517  RMS(g-h-1)= 3.024E-05  nbox= 12
     iter. #   518  RMS(g-h-1)= 3.021E-05  nbox= 13
     iter. #   519  RMS(g-h-1)= 3.018E-05  nbox= 14
     iter. #   520  RMS(g-h-1)= 3.015E-05  nbox= 15
     iter. #   521  RMS(g-h-1)= 3.014E-05  nbox= 16
     iter. #   522  RMS(g-h-1)= 3.011E-05  nbox= 17
     iter. #   523  RMS(g-h-1)= 3.011E-05  nbox=  2
     iter. #   524  RMS(g-h-1)= 3.007E-05  nbox=  3
     iter. #   525  RMS(g-h-1)= 3.005E-05  nbox=  4
     iter. #   526  RMS(g-h-1)= 3.002E-05  nbox=  5
     iter. #   527  RMS(g-h-1)= 2.998E-05  nbox=  6
     iter. #   528  RMS(g-h-1)= 2.995E-05  nbox=  7
     iter. #   529  RMS(g-h-1)= 2.991E-05  nbox=  8
     iter. #   530  RMS(g-h-1)= 2.989E-05  nbox=  9
     iter. #   531  RMS(g-h-1)= 2.985E-05  nbox= 10
     iter. #   532  RMS(g-h-1)= 2.981E-05  nbox= 11
     iter. #   533  RMS(g-h-1)= 2.977E-05  nbox= 12
     iter. #   534  RMS(g-h-1)= 2.974E-05  nbox= 13
     iter. #   535  RMS(g-h-1)= 2.969E-05  nbox= 14
     iter. #   536  RMS(g-h-1)= 2.965E-05  nbox= 15
     iter. #   537  RMS(g-h-1)= 2.963E-05  nbox= 16
     iter. #   538  RMS(g-h-1)= 2.958E-05  nbox= 17
     iter. #   539  RMS(g-h-1)= 2.956E-05  nbox=  2
     iter. #   540  RMS(g-h-1)= 2.951E-05  nbox=  3
     iter. #   541  RMS(g-h-1)= 2.944E-05  nbox=  4
     iter. #   542  RMS(g-h-1)= 2.939E-05  nbox=  5
     iter. #   543  RMS(g-h-1)= 2.933E-05  nbox=  6
     iter. #   544  RMS(g-h-1)= 2.928E-05  nbox=  7
     iter. #   545  RMS(g-h-1)= 2.924E-05  nbox=  8
     iter. #   546  RMS(g-h-1)= 2.919E-05  nbox=  9
     iter. #   547  RMS(g-h-1)= 2.913E-05  nbox= 10
     iter. #   548  RMS(g-h-1)= 2.907E-05  nbox= 11
     iter. #   549  RMS(g-h-1)= 2.901E-05  nbox= 12
     iter. #   550  RMS(g-h-1)= 2.894E-05  nbox= 13
     iter. #   551  RMS(g-h-1)= 2.887E-05  nbox= 14
     iter. #   552  RMS(g-h-1)= 2.883E-05  nbox= 15
     iter. #   553  RMS(g-h-1)= 2.877E-05  nbox= 16
     iter. #   554  RMS(g-h-1)= 2.870E-05  nbox= 17
     iter. #   555  RMS(g-h-1)= 2.869E-05  nbox=  2
     iter. #   556  RMS(g-h-1)= 2.861E-05  nbox=  3
     iter. #   557  RMS(g-h-1)= 2.853E-05  nbox=  4
     iter. #   558  RMS(g-h-1)= 2.845E-05  nbox=  5
     iter. #   559  RMS(g-h-1)= 2.837E-05  nbox=  6
     iter. #   560  RMS(g-h-1)= 2.832E-05  nbox=  7
     iter. #   561  RMS(g-h-1)= 2.825E-05  nbox=  8
     iter. #   562  RMS(g-h-1)= 2.817E-05  nbox=  9
     iter. #   563  RMS(g-h-1)= 2.808E-05  nbox= 10
     iter. #   564  RMS(g-h-1)= 2.799E-05  nbox= 11
     iter. #   565  RMS(g-h-1)= 2.790E-05  nbox= 12
     iter. #   566  RMS(g-h-1)= 2.782E-05  nbox= 13
     iter. #   567  RMS(g-h-1)= 2.775E-05  nbox= 14
     iter. #   568  RMS(g-h-1)= 2.770E-05  nbox= 15
     iter. #   569  RMS(g-h-1)= 2.762E-05  nbox= 16
     iter. #   570  RMS(g-h-1)= 2.754E-05  nbox= 17
     iter. #   571  RMS(g-h-1)= 2.752E-05  nbox=  2
     iter. #   572  RMS(g-h-1)= 2.741E-05  nbox=  3
     iter. #   573  RMS(g-h-1)= 2.733E-05  nbox=  4
     iter. #   574  RMS(g-h-1)= 2.725E-05  nbox=  5
     iter. #   575  RMS(g-h-1)= 2.718E-05  nbox=  6
     iter. #   576  RMS(g-h-1)= 2.712E-05  nbox=  7
     iter. #   577  RMS(g-h-1)= 2.705E-05  nbox=  8
     iter. #   578  RMS(g-h-1)= 2.696E-05  nbox=  9
     iter. #   579  RMS(g-h-1)= 2.686E-05  nbox= 10
     iter. #   580  RMS(g-h-1)= 2.677E-05  nbox= 11
     iter. #   581  RMS(g-h-1)= 2.667E-05  nbox= 12
     iter. #   582  RMS(g-h-1)= 2.657E-05  nbox= 13
     iter. #   583  RMS(g-h-1)= 2.647E-05  nbox= 14
     iter. #   584  RMS(g-h-1)= 2.642E-05  nbox= 15
     iter. #   585  RMS(g-h-1)= 2.634E-05  nbox= 16
     iter. #   586  RMS(g-h-1)= 2.622E-05  nbox= 17
     iter. #   587  RMS(g-h-1)= 2.621E-05  nbox=  2
     iter. #   588  RMS(g-h-1)= 2.609E-05  nbox=  3
     iter. #   589  RMS(g-h-1)= 2.596E-05  nbox=  4
     iter. #   590  RMS(g-h-1)= 2.585E-05  nbox=  5
     iter. #   591  RMS(g-h-1)= 2.574E-05  nbox=  6
     iter. #   592  RMS(g-h-1)= 2.569E-05  nbox=  7
     iter. #   593  RMS(g-h-1)= 2.557E-05  nbox=  8
     iter. #   594  RMS(g-h-1)= 2.547E-05  nbox=  9
     iter. #   595  RMS(g-h-1)= 2.535E-05  nbox= 10
     iter. #   596  RMS(g-h-1)= 2.524E-05  nbox= 11
     iter. #   597  RMS(g-h-1)= 2.511E-05  nbox= 12
     iter. #   598  RMS(g-h-1)= 2.499E-05  nbox= 13
     iter. #   599  RMS(g-h-1)= 2.493E-05  nbox= 14
     iter. #   600  RMS(g-h-1)= 2.482E-05  nbox= 15
     iter. #   601  RMS(g-h-1)= 2.471E-05  nbox= 16
     iter. #   602  RMS(g-h-1)= 2.458E-05  nbox= 17
     iter. #   603  RMS(g-h-1)= 2.455E-05  nbox=  2
     iter. #   604  RMS(g-h-1)= 2.442E-05  nbox=  3
     iter. #   605  RMS(g-h-1)= 2.431E-05  nbox=  4
     iter. #   606  RMS(g-h-1)= 2.422E-05  nbox=  5
     iter. #   607  RMS(g-h-1)= 2.413E-05  nbox=  6
     iter. #   608  RMS(g-h-1)= 2.409E-05  nbox=  7
     iter. #   609  RMS(g-h-1)= 2.399E-05  nbox=  8
     iter. #   610  RMS(g-h-1)= 2.391E-05  nbox=  9
     iter. #   611  RMS(g-h-1)= 2.382E-05  nbox= 10
     iter. #   612  RMS(g-h-1)= 2.374E-05  nbox= 11
     iter. #   613  RMS(g-h-1)= 2.366E-05  nbox= 12
     iter. #   614  RMS(g-h-1)= 2.357E-05  nbox= 13
     iter. #   615  RMS(g-h-1)= 2.353E-05  nbox= 14
     iter. #   616  RMS(g-h-1)= 2.345E-05  nbox= 15
     iter. #   617  RMS(g-h-1)= 2.335E-05  nbox= 16
     iter. #   618  RMS(g-h-1)= 2.326E-05  nbox= 17
     iter. #   619  RMS(g-h-1)= 2.324E-05  nbox=  2
     iter. #   620  RMS(g-h-1)= 2.315E-05  nbox=  3
     iter. #   621  RMS(g-h-1)= 2.307E-05  nbox=  4
     iter. #   622  RMS(g-h-1)= 2.300E-05  nbox=  5
     iter. #   623  RMS(g-h-1)= 2.293E-05  nbox=  6
     iter. #   624  RMS(g-h-1)= 2.290E-05  nbox=  7
     iter. #   625  RMS(g-h-1)= 2.283E-05  nbox=  8
     iter. #   626  RMS(g-h-1)= 2.276E-05  nbox=  9
     iter. #   627  RMS(g-h-1)= 2.269E-05  nbox= 10
     iter. #   628  RMS(g-h-1)= 2.262E-05  nbox= 11
     iter. #   629  RMS(g-h-1)= 2.255E-05  nbox= 12
     iter. #   630  RMS(g-h-1)= 2.248E-05  nbox= 13
     iter. #   631  RMS(g-h-1)= 2.241E-05  nbox= 14
     iter. #   632  RMS(g-h-1)= 2.237E-05  nbox= 15
     iter. #   633  RMS(g-h-1)= 2.231E-05  nbox= 16
     iter. #   634  RMS(g-h-1)= 2.224E-05  nbox= 17
     iter. #   635  RMS(g-h-1)= 2.222E-05  nbox=  2
     iter. #   636  RMS(g-h-1)= 2.215E-05  nbox=  3
     iter. #   637  RMS(g-h-1)= 2.208E-05  nbox=  4
     iter. #   638  RMS(g-h-1)= 2.200E-05  nbox=  5
     iter. #   639  RMS(g-h-1)= 2.193E-05  nbox=  6
     iter. #   640  RMS(g-h-1)= 2.188E-05  nbox=  7
     iter. #   641  RMS(g-h-1)= 2.182E-05  nbox=  8
     iter. #   642  RMS(g-h-1)= 2.172E-05  nbox=  9
     iter. #   643  RMS(g-h-1)= 2.163E-05  nbox= 10
     iter. #   644  RMS(g-h-1)= 2.154E-05  nbox= 11
     iter. #   645  RMS(g-h-1)= 2.145E-05  nbox= 12
     iter. #   646  RMS(g-h-1)= 2.136E-05  nbox= 13
     iter. #   647  RMS(g-h-1)= 2.131E-05  nbox= 14
     iter. #   648  RMS(g-h-1)= 2.123E-05  nbox= 15
     iter. #   649  RMS(g-h-1)= 2.113E-05  nbox= 16
     iter. #   650  RMS(g-h-1)= 2.102E-05  nbox= 17
     iter. #   651  RMS(g-h-1)= 2.100E-05  nbox=  2
     iter. #   652  RMS(g-h-1)= 2.084E-05  nbox=  3
     iter. #   653  RMS(g-h-1)= 2.071E-05  nbox=  4
     iter. #   654  RMS(g-h-1)= 2.058E-05  nbox=  5
     iter. #   655  RMS(g-h-1)= 2.046E-05  nbox=  6
     iter. #   656  RMS(g-h-1)= 2.037E-05  nbox=  7
     iter. #   657  RMS(g-h-1)= 2.029E-05  nbox=  8
     iter. #   658  RMS(g-h-1)= 2.017E-05  nbox=  9
     iter. #   659  RMS(g-h-1)= 2.006E-05  nbox= 10
     iter. #   660  RMS(g-h-1)= 1.995E-05  nbox= 11
     iter. #   661  RMS(g-h-1)= 1.984E-05  nbox= 12
     iter. #   662  RMS(g-h-1)= 1.973E-05  nbox= 13
     iter. #   663  RMS(g-h-1)= 1.963E-05  nbox= 14
     iter. #   664  RMS(g-h-1)= 1.957E-05  nbox= 15
     iter. #   665  RMS(g-h-1)= 1.947E-05  nbox= 16
     iter. #   666  RMS(g-h-1)= 1.936E-05  nbox= 17
     iter. #   667  RMS(g-h-1)= 1.934E-05  nbox=  2
     iter. #   668  RMS(g-h-1)= 1.921E-05  nbox=  3
     iter. #   669  RMS(g-h-1)= 1.910E-05  nbox=  4
     iter. #   670  RMS(g-h-1)= 1.901E-05  nbox=  5
     iter. #   671  RMS(g-h-1)= 1.889E-05  nbox=  6
     iter. #   672  RMS(g-h-1)= 1.881E-05  nbox=  7
     iter. #   673  RMS(g-h-1)= 1.875E-05  nbox=  8
     iter. #   674  RMS(g-h-1)= 1.864E-05  nbox=  9
     iter. #   675  RMS(g-h-1)= 1.854E-05  nbox= 10
     iter. #   676  RMS(g-h-1)= 1.843E-05  nbox= 11
     iter. #   677  RMS(g-h-1)= 1.831E-05  nbox= 12
     iter. #   678  RMS(g-h-1)= 1.819E-05  nbox= 13
     iter. #   679  RMS(g-h-1)= 1.807E-05  nbox= 14
     iter. #   680  RMS(g-h-1)= 1.800E-05  nbox= 15
     iter. #   681  RMS(g-h-1)= 1.791E-05  nbox= 16
     iter. #   682  RMS(g-h-1)= 1.780E-05  nbox= 17
     iter. #   683  RMS(g-h-1)= 1.778E-05  nbox=  2
     iter. #   684  RMS(g-h-1)= 1.764E-05  nbox=  3
     iter. #   685  RMS(g-h-1)= 1.753E-05  nbox=  4
     iter. #   686  RMS(g-h-1)= 1.742E-05  nbox=  5
     iter. #   687  RMS(g-h-1)= 1.728E-05  nbox=  6
     iter. #   688  RMS(g-h-1)= 1.719E-05  nbox=  7
     iter. #   689  RMS(g-h-1)= 1.710E-05  nbox=  8
     iter. #   690  RMS(g-h-1)= 1.698E-05  nbox=  9
     iter. #   691  RMS(g-h-1)= 1.684E-05  nbox= 10
     iter. #   692  RMS(g-h-1)= 1.669E-05  nbox= 11
     iter. #   693  RMS(g-h-1)= 1.654E-05  nbox= 12
     iter. #   694  RMS(g-h-1)= 1.641E-05  nbox= 13
     iter. #   695  RMS(g-h-1)= 1.625E-05  nbox= 14
     iter. #   696  RMS(g-h-1)= 1.616E-05  nbox= 15
     iter. #   697  RMS(g-h-1)= 1.606E-05  nbox= 16
     iter. #   698  RMS(g-h-1)= 1.593E-05  nbox= 17
     iter. #   699  RMS(g-h-1)= 1.590E-05  nbox=  2
     iter. #   700  RMS(g-h-1)= 1.576E-05  nbox=  3
     iter. #   701  RMS(g-h-1)= 1.563E-05  nbox=  4
     iter. #   702  RMS(g-h-1)= 1.553E-05  nbox=  5
     iter. #   703  RMS(g-h-1)= 1.542E-05  nbox=  6
     iter. #   704  RMS(g-h-1)= 1.537E-05  nbox=  7
     iter. #   705  RMS(g-h-1)= 1.527E-05  nbox=  8
     iter. #   706  RMS(g-h-1)= 1.518E-05  nbox=  9
     iter. #   707  RMS(g-h-1)= 1.509E-05  nbox= 10
     iter. #   708  RMS(g-h-1)= 1.500E-05  nbox= 11
     iter. #   709  RMS(g-h-1)= 1.491E-05  nbox= 12
     iter. #   710  RMS(g-h-1)= 1.484E-05  nbox= 13
     iter. #   711  RMS(g-h-1)= 1.474E-05  nbox= 14
     iter. #   712  RMS(g-h-1)= 1.474E-05  nbox= 15
     iter. #   713  RMS(g-h-1)= 1.464E-05  nbox= 16
     iter. #   714  RMS(g-h-1)= 1.457E-05  nbox= 17
     iter. #   715  RMS(g-h-1)= 1.455E-05  nbox=  2
     iter. #   716  RMS(g-h-1)= 1.448E-05  nbox=  3
     iter. #   717  RMS(g-h-1)= 1.440E-05  nbox=  4
     iter. #   718  RMS(g-h-1)= 1.434E-05  nbox=  5
     iter. #   719  RMS(g-h-1)= 1.427E-05  nbox=  6
     iter. #   720  RMS(g-h-1)= 1.427E-05  nbox=  7
     iter. #   721  RMS(g-h-1)= 1.418E-05  nbox=  8
     iter. #   722  RMS(g-h-1)= 1.413E-05  nbox=  9
     iter. #   723  RMS(g-h-1)= 1.406E-05  nbox= 10
     iter. #   724  RMS(g-h-1)= 1.401E-05  nbox= 11
     iter. #   725  RMS(g-h-1)= 1.396E-05  nbox= 12
     iter. #   726  RMS(g-h-1)= 1.391E-05  nbox= 13
     iter. #   727  RMS(g-h-1)= 1.386E-05  nbox= 14
     iter. #   728  RMS(g-h-1)= 1.383E-05  nbox= 15
     iter. #   729  RMS(g-h-1)= 1.379E-05  nbox= 16
     iter. #   730  RMS(g-h-1)= 1.374E-05  nbox= 17
     iter. #   731  RMS(g-h-1)= 1.372E-05  nbox=  2
     iter. #   732  RMS(g-h-1)= 1.366E-05  nbox=  3
     iter. #   733  RMS(g-h-1)= 1.360E-05  nbox=  4
     iter. #   734  RMS(g-h-1)= 1.355E-05  nbox=  5
     iter. #   735  RMS(g-h-1)= 1.349E-05  nbox=  6
     iter. #   736  RMS(g-h-1)= 1.347E-05  nbox=  7
     iter. #   737  RMS(g-h-1)= 1.340E-05  nbox=  8
     iter. #   738  RMS(g-h-1)= 1.335E-05  nbox=  9
     iter. #   739  RMS(g-h-1)= 1.329E-05  nbox= 10
     iter. #   740  RMS(g-h-1)= 1.324E-05  nbox= 11
     iter. #   741  RMS(g-h-1)= 1.318E-05  nbox= 12
     iter. #   742  RMS(g-h-1)= 1.311E-05  nbox= 13
     iter. #   743  RMS(g-h-1)= 1.311E-05  nbox= 14
     iter. #   744  RMS(g-h-1)= 1.302E-05  nbox= 15
     iter. #   745  RMS(g-h-1)= 1.295E-05  nbox= 16
     iter. #   746  RMS(g-h-1)= 1.286E-05  nbox= 17
     iter. #   747  RMS(g-h-1)= 1.284E-05  nbox=  2
     iter. #   748  RMS(g-h-1)= 1.274E-05  nbox=  3
     iter. #   749  RMS(g-h-1)= 1.266E-05  nbox=  4
     iter. #   750  RMS(g-h-1)= 1.259E-05  nbox=  5
     iter. #   751  RMS(g-h-1)= 1.252E-05  nbox=  6
     iter. #   752  RMS(g-h-1)= 1.246E-05  nbox=  7
     iter. #   753  RMS(g-h-1)= 1.237E-05  nbox=  8
     iter. #   754  RMS(g-h-1)= 1.230E-05  nbox=  9
     iter. #   755  RMS(g-h-1)= 1.222E-05  nbox= 10
     iter. #   756  RMS(g-h-1)= 1.214E-05  nbox= 11
     iter. #   757  RMS(g-h-1)= 1.205E-05  nbox= 12
     iter. #   758  RMS(g-h-1)= 1.196E-05  nbox= 13
     iter. #   759  RMS(g-h-1)= 1.188E-05  nbox= 14
     iter. #   760  RMS(g-h-1)= 1.180E-05  nbox= 15
     iter. #   761  RMS(g-h-1)= 1.168E-05  nbox= 16
     iter. #   762  RMS(g-h-1)= 1.156E-05  nbox= 17
     iter. #   763  RMS(g-h-1)= 1.152E-05  nbox=  2
     iter. #   764  RMS(g-h-1)= 1.138E-05  nbox=  3
     iter. #   765  RMS(g-h-1)= 1.126E-05  nbox=  4
     iter. #   766  RMS(g-h-1)= 1.115E-05  nbox=  5
     iter. #   767  RMS(g-h-1)= 1.107E-05  nbox=  6
     iter. #   768  RMS(g-h-1)= 1.096E-05  nbox=  7
     iter. #   769  RMS(g-h-1)= 1.085E-05  nbox=  8
     iter. #   770  RMS(g-h-1)= 1.073E-05  nbox=  9
     iter. #   771  RMS(g-h-1)= 1.062E-05  nbox= 10
     iter. #   772  RMS(g-h-1)= 1.050E-05  nbox= 11
     iter. #   773  RMS(g-h-1)= 1.041E-05  nbox= 12
     iter. #   774  RMS(g-h-1)= 1.032E-05  nbox= 13
     iter. #   775  RMS(g-h-1)= 1.026E-05  nbox= 14
     iter. #   776  RMS(g-h-1)= 1.019E-05  nbox= 15
     iter. #   777  RMS(g-h-1)= 1.010E-05  nbox= 16
     iter. #   778  RMS(g-h-1)= 1.002E-05  nbox= 17
     iter. #   779  RMS(g-h-1)= 9.999E-06  nbox=  2
     iter. #   780  RMS(g-h-1)= 9.893E-06  nbox=  3
     iter. #   781  RMS(g-h-1)= 9.808E-06  nbox=  4
     iter. #   782  RMS(g-h-1)= 9.726E-06  nbox=  5
     iter. #   783  RMS(g-h-1)= 9.660E-06  nbox=  6
     iter. #   784  RMS(g-h-1)= 9.613E-06  nbox=  7
     iter. #   785  RMS(g-h-1)= 9.526E-06  nbox=  8
     iter. #   786  RMS(g-h-1)= 9.448E-06  nbox=  9
     iter. #   787  RMS(g-h-1)= 9.375E-06  nbox= 10
     iter. #   788  RMS(g-h-1)= 9.293E-06  nbox= 11
     iter. #   789  RMS(g-h-1)= 9.389E-06  nbox= 12
     iter. #   790  RMS(g-h-1)= 9.178E-06  nbox= 13
     iter. #   791  RMS(g-h-1)= 9.142E-06  nbox= 14
     iter. #   792  RMS(g-h-1)= 9.070E-06  nbox= 15
     iter. #   793  RMS(g-h-1)= 9.006E-06  nbox= 16
     iter. #   794  RMS(g-h-1)= 8.942E-06  nbox= 17
     iter. #   795  RMS(g-h-1)= 8.932E-06  nbox=  2
     iter. #   796  RMS(g-h-1)= 8.854E-06  nbox=  3
     iter. #   797  RMS(g-h-1)= 8.792E-06  nbox=  4
     iter. #   798  RMS(g-h-1)= 8.712E-06  nbox=  5
     iter. #   799  RMS(g-h-1)= 8.770E-06  nbox=  6
     iter. #   800  RMS(g-h-1)= 8.597E-06  nbox=  7
     iter. #   801  RMS(g-h-1)= 8.536E-06  nbox=  8
     iter. #   802  RMS(g-h-1)= 8.458E-06  nbox=  9
     iter. #   803  RMS(g-h-1)= 8.401E-06  nbox= 10
     iter. #   804  RMS(g-h-1)= 8.330E-06  nbox= 11
     iter. #   805  RMS(g-h-1)= 8.361E-06  nbox= 12
     iter. #   806  RMS(g-h-1)= 8.230E-06  nbox= 13
     iter. #   807  RMS(g-h-1)= 8.178E-06  nbox= 14
     iter. #   808  RMS(g-h-1)= 8.097E-06  nbox= 15
     iter. #   809  RMS(g-h-1)= 8.016E-06  nbox= 16
     iter. #   810  RMS(g-h-1)= 7.943E-06  nbox= 17
     iter. #   811  RMS(g-h-1)= 7.924E-06  nbox=  2
     iter. #   812  RMS(g-h-1)= 7.826E-06  nbox=  3
     iter. #   813  RMS(g-h-1)= 7.759E-06  nbox=  4
     iter. #   814  RMS(g-h-1)= 7.680E-06  nbox=  5
     iter. #   815  RMS(g-h-1)= 7.617E-06  nbox=  6
     iter. #   816  RMS(g-h-1)= 7.584E-06  nbox=  7
     iter. #   817  RMS(g-h-1)= 7.517E-06  nbox=  8
     iter. #   818  RMS(g-h-1)= 7.462E-06  nbox=  9
     iter. #   819  RMS(g-h-1)= 7.404E-06  nbox= 10
     iter. #   820  RMS(g-h-1)= 7.340E-06  nbox= 11
     iter. #   821  RMS(g-h-1)= 7.291E-06  nbox= 12
     iter. #   822  RMS(g-h-1)= 7.221E-06  nbox= 13
     iter. #   823  RMS(g-h-1)= 7.175E-06  nbox= 14
     iter. #   824  RMS(g-h-1)= 7.148E-06  nbox= 15
     iter. #   825  RMS(g-h-1)= 7.097E-06  nbox= 16
     iter. #   826  RMS(g-h-1)= 7.056E-06  nbox= 17
     iter. #   827  RMS(g-h-1)= 7.044E-06  nbox=  2
     iter. #   828  RMS(g-h-1)= 6.984E-06  nbox=  3
     iter. #   829  RMS(g-h-1)= 6.946E-06  nbox=  4
     iter. #   830  RMS(g-h-1)= 6.899E-06  nbox=  5
     iter. #   831  RMS(g-h-1)= 6.857E-06  nbox=  6
     iter. #   832  RMS(g-h-1)= 6.821E-06  nbox=  7
     iter. #   833  RMS(g-h-1)= 6.798E-06  nbox=  8
     iter. #   834  RMS(g-h-1)= 6.749E-06  nbox=  9
     iter. #   835  RMS(g-h-1)= 6.711E-06  nbox= 10
     iter. #   836  RMS(g-h-1)= 6.668E-06  nbox= 11
     iter. #   837  RMS(g-h-1)= 6.629E-06  nbox= 12
     iter. #   838  RMS(g-h-1)= 6.585E-06  nbox= 13
     iter. #   839  RMS(g-h-1)= 6.552E-06  nbox= 14
     iter. #   840  RMS(g-h-1)= 6.514E-06  nbox= 15
     iter. #   841  RMS(g-h-1)= 6.495E-06  nbox= 16
     iter. #   842  RMS(g-h-1)= 6.459E-06  nbox= 17
     iter. #   843  RMS(g-h-1)= 6.450E-06  nbox=  2
     iter. #   844  RMS(g-h-1)= 6.401E-06  nbox=  3
     iter. #   845  RMS(g-h-1)= 6.363E-06  nbox=  4
     iter. #   846  RMS(g-h-1)= 6.321E-06  nbox=  5
     iter. #   847  RMS(g-h-1)= 6.279E-06  nbox=  6

     End of Laue-RISM calculation


     convergence has been achieved in   847 iterations


     solvent charge    0.00332, renormalised to    0.00000

     Total number of solvent (in expand-cell)
     H2O           97.476182
     K+             1.613076
     OH-            1.611088

     Total charge of solvent (in expand-cell)
     H2O            0.000169 e
     K+             1.613076 e
     OH-           -1.609929 e
     Total          0.003317 e

     Chemical potential of solvation (in expand-cell)
     H2O        GaussFluct   0.154233E+01 kcal/mol
     K+         GaussFluct   0.186977E+01 kcal/mol
     OH-        GaussFluct  -0.125393E+01 kcal/mol
     Total      GaussFluct   0.215817E+01 kcal/mol

     Starting wfc are  332 randomized atomic wfcs
     Checking if some PAW data can be deallocated... 
       node    0, deallocated PAW data for type:  2
       node    0, deallocated PAW data for type:  3
       node    1, deallocated PAW data for type:  2
       node    1, deallocated PAW data for type:  3
       node    2, deallocated PAW data for type:  2
       node    2, deallocated PAW data for type:  3
       node    3, deallocated PAW data for type:  2
       node    3, deallocated PAW data for type:  3
       node    4, deallocated PAW data for type:  2
       node    4, deallocated PAW data for type:  3
       node    5, deallocated PAW data for type:  2
       node    5, deallocated PAW data for type:  3
       node    6, deallocated PAW data for type:  2
       node    6, deallocated PAW data for type:  3
       node    7, deallocated PAW data for type:  2
       node    7, deallocated PAW data for type:  3
       node    8, deallocated PAW data for type:  2
       node    8, deallocated PAW data for type:  3
       node    9, deallocated PAW data for type:  2
       node    9, deallocated PAW data for type:  3
       node   10, deallocated PAW data for type:  2
       node   10, deallocated PAW data for type:  3
       node   11, deallocated PAW data for type:  2
       node   11, deallocated PAW data for type:  3
       node   12, deallocated PAW data for type:  2
       node   12, deallocated PAW data for type:  3
       node   13, deallocated PAW data for type:  2
       node   13, deallocated PAW data for type:  3
       node   14, deallocated PAW data for type:  2
       node   14, deallocated PAW data for type:  3
       node   15, deallocated PAW data for type:  2
       node   15, deallocated PAW data for type:  3
       node   16, deallocated PAW data for type:  2
       node   16, deallocated PAW data for type:  3
       node   17, deallocated PAW data for type:  2
       node   17, deallocated PAW data for type:  3
       node   18, deallocated PAW data for type:  2
       node   18, deallocated PAW data for type:  3
       node   19, deallocated PAW data for type:  2
       node   19, deallocated PAW data for type:  3
       node   20, deallocated PAW data for type:  2
       node   20, deallocated PAW data for type:  3
       node   21, deallocated PAW data for type:  2
       node   21, deallocated PAW data for type:  3
       node   22, deallocated PAW data for type:  2
       node   22, deallocated PAW data for type:  3
       node   23, deallocated PAW data for type:  2
[...]
     atom   19 type  1   force =    -0.00000532   -0.04926635   61.63581546
     atom   20 type  1   force =    -0.21061355   -0.12087117   65.56344328
     atom   21 type  1   force =     0.21061270   -0.12089394   65.56341500
     atom   22 type  1   force =     0.01581174   -0.00894492   62.69851568
     atom   23 type  1   force =    -0.00001653    0.24332850   65.56501976
     atom   24 type  1   force =    -0.01579879   -0.00895342   62.69855485
     atom   25 type  1   force =     0.04317515    0.02415589   61.63597875
     atom   26 type  1   force =    -0.04319465    0.02415804   61.63604093
     atom   27 type  1   force =     0.00001644    0.01740001   62.69741198
     atom   28 type  1   force =    -0.00000240   -0.00225013  203.68840978
     atom   29 type  1   force =    -0.59914264   -0.75586024  202.92754540
     atom   30 type  1   force =     0.59914544   -0.75587060  202.92750490
     atom   31 type  1   force =    -0.95070465   -0.13693773  202.93221098
     atom   32 type  1   force =     0.00001058    0.01020989  203.56260218
     atom   33 type  1   force =     0.95071185   -0.13694747  202.93224045
     atom   34 type  1   force =    -0.35158581    0.89085979  202.93684774
     atom   35 type  1   force =     0.35157196    0.89086075  202.93690324
     atom   36 type  1   force =     0.00001785   -0.00225039  204.43256289
     atom   37 type  2   force =     0.00002396    0.08689282   93.27944617
     atom   38 type  3   force =    -0.00003677   -0.08883128  164.32226948
     The local contribution  to forces
     atom    1 type  1   force =     0.00000322   -0.00003738  217.60713260
     atom    2 type  1   force =     0.02321196   -0.02514007  217.76111649
     atom    3 type  1   force =    -0.02321703   -0.02513850  217.76111224
     atom    4 type  1   force =    -0.01015851    0.03258975  217.76107858
     atom    5 type  1   force =    -0.00000123   -0.00010445  217.72428709
     atom    6 type  1   force =     0.01015832    0.03259347  217.76108356
     atom    7 type  1   force =    -0.03336579   -0.00742952  217.76105024
     atom    8 type  1   force =     0.03336779   -0.00742641  217.76106120
     atom    9 type  1   force =    -0.00000425    0.00007705  217.84869379
     atom   10 type  1   force =     0.02254967    0.01301815   77.50411481
     atom   11 type  1   force =    -0.00000743   -0.16361907   77.20052631
     atom   12 type  1   force =    -0.02254119    0.01303798   77.50412238
     atom   13 type  1   force =    -0.14171221    0.08170360   77.20030433
     atom   14 type  1   force =     0.14172467    0.08172136   77.20029379
     atom   15 type  1   force =    -0.00001254    0.09681718   77.81438361
     atom   16 type  1   force =     0.00002316   -0.02593424   77.50400630
     atom   17 type  1   force =     0.08391078   -0.04838012   77.81435426
     atom   18 type  1   force =    -0.08393277   -0.04837629   77.81436661
     atom   19 type  1   force =     0.00000536    0.04448619  -61.66041737
     atom   20 type  1   force =     0.22397463    0.12863543  -65.56640248
     atom   21 type  1   force =    -0.22397392    0.12865807  -65.56637437
     atom   22 type  1   force =    -0.02370088    0.01351372  -62.72707338
     atom   23 type  1   force =     0.00001630   -0.25879566  -65.56784898
     atom   24 type  1   force =     0.02368809    0.01352221  -62.72711269
     atom   25 type  1   force =    -0.03907389   -0.02175147  -61.66060896
     atom   26 type  1   force =     0.03909324   -0.02175345  -61.66067123
     atom   27 type  1   force =    -0.00001638   -0.02659280  -62.72594891
     atom   28 type  1   force =     0.00000203    0.00220993 -203.71948958
     atom   29 type  1   force =     0.58066974    0.72541076 -203.00811941
     atom   30 type  1   force =    -0.58067219    0.72542092 -203.00807821
     atom   31 type  1   force =     0.91477809    0.13608829 -203.01300081
     atom   32 type  1   force =    -0.00001074   -0.01093675 -203.59063006
     atom   33 type  1   force =    -0.91478529    0.13609756 -203.01303081
     atom   34 type  1   force =     0.33412417   -0.85908306 -203.01784738
     atom   35 type  1   force =    -0.33411070   -0.85908422 -203.01790401
     atom   36 type  1   force =    -0.00001742    0.00222262 -204.46463861
     atom   37 type  2   force =    -0.00002096   -0.07961448  -94.15980376
     atom   38 type  3   force =     0.00002727    0.06424859 -161.56920429
     The core correction contribution to forces
     atom    1 type  1   force =     0.00000001    0.00000105    0.01936603
     atom    2 type  1   force =    -0.00022226    0.00004260    0.01940636
     atom    3 type  1   force =     0.00022225    0.00004260    0.01940636
     atom    4 type  1   force =    -0.00007487   -0.00021829    0.01940527
     atom    5 type  1   force =    -0.00000001   -0.00000430    0.01895049
     atom    6 type  1   force =     0.00007487   -0.00021829    0.01940528
     atom    7 type  1   force =     0.00014737    0.00017461    0.01940546
     atom    8 type  1   force =    -0.00014737    0.00017461    0.01940547
     atom    9 type  1   force =     0.00000000    0.00000372    0.01978424
     atom   10 type  1   force =     0.00024649    0.00014244    0.00010315
     atom   11 type  1   force =    -0.00000001   -0.00063646   -0.00036773
     atom   12 type  1   force =    -0.00024648    0.00014247    0.00010314
     atom   13 type  1   force =    -0.00055471    0.00031655   -0.00036535
     atom   14 type  1   force =     0.00055473    0.00031658   -0.00036532
     atom   15 type  1   force =    -0.00000002    0.00028213    0.00066659
     atom   16 type  1   force =     0.00000004   -0.00028215    0.00009769
     atom   17 type  1   force =     0.00024393   -0.00014186    0.00066500
     atom   18 type  1   force =    -0.00024397   -0.00014185    0.00066500
     atom   19 type  1   force =     0.00000003   -0.00034969   -0.00017894
     atom   20 type  1   force =     0.00157686    0.00091326    0.00097495
     atom   21 type  1   force =    -0.00157686    0.00091330    0.00097498
     atom   22 type  1   force =     0.00008786   -0.00004776    0.00048092
     atom   23 type  1   force =     0.00000003   -0.00181451    0.00095690
     atom   24 type  1   force =    -0.00008786   -0.00004775    0.00048094
     atom   25 type  1   force =     0.00030362    0.00017079   -0.00017911
     atom   26 type  1   force =    -0.00030358    0.00017081   -0.00017911
     atom   27 type  1   force =    -0.00000002    0.00009463    0.00047646
     atom   28 type  1   force =    -0.00000001   -0.00000104   -0.01963598
     atom   29 type  1   force =    -0.00087493   -0.00168857   -0.02007600
     atom   30 type  1   force =     0.00087494   -0.00168853   -0.02007596
     atom   31 type  1   force =    -0.00190682    0.00008252   -0.02008166
     atom   32 type  1   force =    -0.00000009    0.00005065    0.02504410
     atom   33 type  1   force =     0.00190678    0.00008252   -0.02008164
     atom   34 type  1   force =    -0.00103519    0.00161690   -0.02008234
     atom   35 type  1   force =     0.00103521    0.00161687   -0.02008235
     atom   36 type  1   force =    -0.00000003   -0.00000289   -0.02027514
     atom   37 type  2   force =     0.00000009    0.00016697   -0.01714619
     atom   38 type  3   force =    -0.00000007   -0.00020452    0.02244672
     The Hubbard contrib.    to forces
     atom    1 type  1   force =     0.00000000    0.00000000    0.00000000
     atom    2 type  1   force =     0.00000000    0.00000000    0.00000000
     atom    3 type  1   force =     0.00000000    0.00000000    0.00000000
     atom    4 type  1   force =     0.00000000    0.00000000    0.00000000
     atom    5 type  1   force =     0.00000000    0.00000000    0.00000000
     atom    6 type  1   force =     0.00000000    0.00000000    0.00000000
     atom    7 type  1   force =     0.00000000    0.00000000    0.00000000
     atom    8 type  1   force =     0.00000000    0.00000000    0.00000000
     atom    9 type  1   force =     0.00000000    0.00000000    0.00000000
     atom   10 type  1   force =     0.00000000    0.00000000    0.00000000
     atom   11 type  1   force =     0.00000000    0.00000000    0.00000000
     atom   12 type  1   force =     0.00000000    0.00000000    0.00000000
     atom   13 type  1   force =     0.00000000    0.00000000    0.00000000
     atom   14 type  1   force =     0.00000000    0.00000000    0.00000000
     atom   15 type  1   force =     0.00000000    0.00000000    0.00000000
     atom   16 type  1   force =     0.00000000    0.00000000    0.00000000
     atom   17 type  1   force =     0.00000000    0.00000000    0.00000000
     atom   18 type  1   force =     0.00000000    0.00000000    0.00000000
     atom   19 type  1   force =     0.00000000    0.00000000    0.00000000
     atom   20 type  1   force =     0.00000000    0.00000000    0.00000000
     atom   21 type  1   force =     0.00000000    0.00000000    0.00000000
     atom   22 type  1   force =     0.00000000    0.00000000    0.00000000
     atom   23 type  1   force =     0.00000000    0.00000000    0.00000000
     atom   24 type  1   force =     0.00000000    0.00000000    0.00000000
     atom   25 type  1   force =     0.00000000    0.00000000    0.00000000
     atom   26 type  1   force =     0.00000000    0.00000000    0.00000000
     atom   27 type  1   force =     0.00000000    0.00000000    0.00000000
     atom   28 type  1   force =     0.00000000    0.00000000    0.00000000
     atom   29 type  1   force =     0.00000000    0.00000000    0.00000000
     atom   30 type  1   force =     0.00000000    0.00000000    0.00000000
     atom   31 type  1   force =     0.00000000    0.00000000    0.00000000
     atom   32 type  1   force =     0.00000000    0.00000000    0.00000000
     atom   33 type  1   force =     0.00000000    0.00000000    0.00000000
     atom   34 type  1   force =     0.00000000    0.00000000    0.00000000
     atom   35 type  1   force =     0.00000000    0.00000000    0.00000000
     atom   36 type  1   force =     0.00000000    0.00000000    0.00000000
     atom   37 type  2   force =     0.00000000    0.00000000    0.00000000
     atom   38 type  3   force =     0.00000000    0.00000000    0.00000000
     The SCF correction term to forces
     atom    1 type  1   force =     0.00000000    0.00000000    0.00000000
     atom    2 type  1   force =     0.00000000    0.00000000    0.00000000
     atom    3 type  1   force =     0.00000000    0.00000000    0.00000000
     atom    4 type  1   force =     0.00000000    0.00000000    0.00000000
     atom    5 type  1   force =     0.00000000    0.00000000    0.00000000
     atom    6 type  1   force =     0.00000000    0.00000000    0.00000000
     atom    7 type  1   force =     0.00000000    0.00000000    0.00000000
     atom    8 type  1   force =     0.00000000    0.00000000    0.00000000
     atom    9 type  1   force =     0.00000000    0.00000000    0.00000000
     atom   10 type  1   force =     0.00000001   -0.00000001   -0.00000114
     atom   11 type  1   force =    -0.00000003   -0.00000001   -0.00000116
     atom   12 type  1   force =     0.00000001    0.00000003   -0.00000116
     atom   13 type  1   force =    -0.00000001   -0.00000003   -0.00000116
     atom   14 type  1   force =     0.00000002    0.00000000   -0.00000116
     atom   15 type  1   force =    -0.00000001   -0.00000003   -0.00000114
     atom   16 type  1   force =     0.00000004    0.00000002   -0.00000116
     atom   17 type  1   force =    -0.00000003    0.00000003   -0.00000114
     atom   18 type  1   force =    -0.00000002    0.00000002   -0.00000114
     atom   19 type  1   force =     0.00000003   -0.00000002   -0.00000136
     atom   20 type  1   force =    -0.00000018   -0.00000013   -0.00000148
     atom   21 type  1   force =     0.00000017   -0.00000008   -0.00000148
     atom   22 type  1   force =    -0.00000016    0.00000005   -0.00000132
     atom   23 type  1   force =     0.00000003    0.00000020   -0.00000147
     atom   24 type  1   force =     0.00000014    0.00000008   -0.00000134
     atom   25 type  1   force =     0.00000003    0.00000002   -0.00000134
     atom   26 type  1   force =     0.00000001    0.00000003   -0.00000137
     atom   27 type  1   force =    -0.00000004   -0.00000015   -0.00000134
     atom   28 type  1   force =     0.00000003    0.00000000   -0.00000094
     atom   29 type  1   force =    -0.00000017   -0.00000037   -0.00000111
     atom   30 type  1   force =     0.00000014   -0.00000037   -0.00000110
     atom   31 type  1   force =    -0.00000038    0.00000004   -0.00000111
     atom   32 type  1   force =     0.00000001    0.00000001   -0.00000091
     atom   33 type  1   force =     0.00000040    0.00000006   -0.00000111
     atom   34 type  1   force =    -0.00000023    0.00000030   -0.00000110
     atom   35 type  1   force =     0.00000025    0.00000033   -0.00000109
     atom   36 type  1   force =    -0.00000003    0.00000000   -0.00000082
     atom   37 type  2   force =     0.00000000    0.00000000   -0.00000020
     atom   38 type  3   force =     0.00000000    0.00000000   -0.00000133

     3D-RISM Solvation contribution to forces:
     atom    1 type  1   force =     0.00000001   -0.00000012    0.00000697
     atom    2 type  1   force =     0.00001178    0.00002349    0.00003101
     atom    3 type  1   force =    -0.00001177    0.00002351    0.00003101
     atom    4 type  1   force =     0.00002633   -0.00000138    0.00003119
     atom    5 type  1   force =     0.00000004    0.00000025    0.00008321
     atom    6 type  1   force =    -0.00002635   -0.00000136    0.00003128
     atom    7 type  1   force =     0.00001458   -0.00002212    0.00003140
     atom    8 type  1   force =    -0.00001455   -0.00002213    0.00003149
     atom    9 type  1   force =    -0.00000003   -0.00000012    0.00000186
     atom   10 type  1   force =     0.00014056    0.00008139    0.00003905
     atom   11 type  1   force =     0.00000003    0.00020013    0.00030571
     atom   12 type  1   force =    -0.00014051    0.00008147    0.00003906
     atom   13 type  1   force =     0.00017320   -0.00009866    0.00030837
     atom   14 type  1   force =    -0.00017307   -0.00009862    0.00030841
     atom   15 type  1   force =    -0.00000007   -0.00005332   -0.00004892
     atom   16 type  1   force =     0.00000010   -0.00016383    0.00004119
     atom   17 type  1   force =    -0.00004726    0.00002577   -0.00004921
     atom   18 type  1   force =     0.00004719    0.00002581   -0.00004923
     atom   19 type  1   force =     0.00000006    0.00027306   -0.00045237
     atom   20 type  1   force =     0.00101997    0.00059860    0.00202372
     atom   21 type  1   force =    -0.00101984    0.00059872    0.00202381
     atom   22 type  1   force =     0.00117628   -0.00067632   -0.00006525
     atom   23 type  1   force =     0.00000017   -0.00117685    0.00204624
     atom   24 type  1   force =    -0.00117631   -0.00067627   -0.00006498
     atom   25 type  1   force =    -0.00023059   -0.00014256   -0.00045007
     atom   26 type  1   force =     0.00023080   -0.00014261   -0.00044987
     atom   27 type  1   force =    -0.00000005    0.00134615   -0.00007712
     atom   28 type  1   force =     0.00000028   -0.00000395   -0.01743602
     atom   29 type  1   force =     0.00524203    0.01021216    0.00335234
     atom   30 type  1   force =    -0.00524228    0.01021279    0.00335205
     atom   31 type  1   force =     0.01153585   -0.00052471    0.00340392
     atom   32 type  1   force =     0.00000060    0.00015408    0.00843230
     atom   33 type  1   force =    -0.01153644   -0.00052429    0.00340473
     atom   34 type  1   force =     0.00629230   -0.00976064    0.00346351
     atom   35 type  1   force =    -0.00629182   -0.00976083    0.00346461
     atom   36 type  1   force =    -0.00000049    0.00000279   -0.01936708
     atom   37 type  2   force =     0.00000013    0.00026354   -0.02149375
     atom   38 type  3   force =    -0.00000026    0.00077506   -0.08228841

     Total force =     0.001193     Total SCF correction =     0.000006

     Total 3D-RISM Solvation Force =     0.094220

     Writing output data file Cu-vib.save
 
     init_run     :    375.83s CPU    191.12s WALL (       1 calls)
     electrons    :   7202.08s CPU   3671.65s WALL (       1 calls)
     forces       :     26.81s CPU     13.31s WALL (       1 calls)

     Called by init_run:
     wfcinit      :     57.30s CPU     30.01s WALL (       1 calls)
     wfcinit:atom :      0.02s CPU      0.02s WALL (      34 calls)
     wfcinit:wfcr :     55.93s CPU     29.67s WALL (      34 calls)
     potinit      :    308.84s CPU    156.44s WALL (       1 calls)

     Called by electrons:
     c_bands      :   3998.58s CPU   2054.30s WALL (      35 calls)
     sum_band     :    561.82s CPU    291.09s WALL (      35 calls)
     v_of_rho     :     43.32s CPU     22.79s WALL (      35 calls)
     v_h          :      2.62s CPU      0.55s WALL (      70 calls)
     v_xc         :     43.66s CPU     23.13s WALL (      36 calls)
     newd         :      4.35s CPU      1.27s WALL (      35 calls)
     PAW_pot      :      6.47s CPU      2.90s WALL (      35 calls)
     mix_rho      :      2.40s CPU      0.59s WALL (      35 calls)

     Called by c_bands:
     init_us_2    :      4.65s CPU      1.58s WALL (    2448 calls)
     crmmdiagg    :   2600.37s CPU   1298.47s WALL (    1190 calls)
     wfcrot       :   1371.37s CPU    741.17s WALL (    1156 calls)
     gsorth       :     78.61s CPU     41.75s WALL (    1190 calls)

     Called by sum_band:
     sum_band:bec :      1.28s CPU      1.28s WALL (    1190 calls)
     addusdens    :      1.27s CPU      1.27s WALL (      35 calls)

     Called by *rmmdiagg:
     h_psi        :   3575.96s CPU   1823.83s WALL (   10277 calls)
     s_psi        :     56.51s CPU     27.48s WALL (   10277 calls)
     cdiaghg      :    150.81s CPU     81.23s WALL (    1156 calls)
     cdiaghg:chol :      6.96s CPU      2.92s WALL (    1156 calls)
     cdiaghg:inve :      3.44s CPU      1.89s WALL (    1156 calls)
     cdiaghg:para :      2.42s CPU      1.83s WALL (    2312 calls)

     Called by h_psi:
     h_psi:pot    :   3573.57s CPU   1822.42s WALL (   10277 calls)
     h_psi:calbec :    120.93s CPU     69.41s WALL (   10277 calls)
     vloc_psi     :   3404.27s CPU   1724.56s WALL (   10277 calls)
     add_vuspsi   :     48.16s CPU     28.27s WALL (   10277 calls)

     General routines
     calbec       :    159.95s CPU     89.31s WALL (   11603 calls)
     fft          :     37.05s CPU     16.37s WALL (    2477 calls)
     ffts         :      0.16s CPU      0.17s WALL (      70 calls)
     fftw         :   3848.89s CPU   1949.39s WALL ( 2007074 calls)
     fftc         :      0.16s CPU      0.16s WALL (      70 calls)
     interpolate  :      1.66s CPU      0.62s WALL (      70 calls)
 
     Parallel routines
     fft_scatter  :   2645.69s CPU   1464.71s WALL ( 2108282 calls)

     PAW routines
     PAW_pot      :      6.47s CPU      2.90s WALL (      35 calls)

     RISM routines
     1DRISM_pre   :     27.69s CPU     14.27s WALL (       1 calls)
     1DRISM_run   :      0.87s CPU      1.18s WALL (       1 calls)
     3DRISM_pre   :     10.65s CPU      6.29s WALL (       1 calls)
     3DRISM_run   :   2878.84s CPU   1446.27s WALL (      35 calls)
     3DRISM_for   :      6.01s CPU      2.89s WALL (       1 calls)
     3DRISM_vsol  :      0.22s CPU      0.22s WALL (      35 calls)
 
     PWSCF        :     2h 9m CPU        1h 6m WALL

 
   This run was terminated on:  19: 4:26  10Feb2026            

=------------------------------------------------------------------------------=
   JOB DONE.
=------------------------------------------------------------------------------=
