
     Program PWSCF v.6.1 starts on  9Feb2026 at 14:11:10 

     This program is part of the open-source Quantum ESPRESSO suite
     for quantum simulation of materials; please cite
         "P. Giannozzi et al., J. Phys.:Condens. Matter 21 395502 (2009);
          URL http://www.quantum-espresso.org", 
     in publications or presentations arising from this work. More details at
     http://www.quantum-espresso.org/quote

     Parallel version (MPI & OpenMP), running on     192 processor cores
     Number of MPI processes:                96
     Threads/MPI process:                     2
     R & G space division:  proc/nbgrp/npool/nimage =      96
     Reading input from espresso.pwi
Warning: card &IONS ignored
Warning: card    ION_DYNAMICS     = 'BFGS' ignored
Warning: card / ignored
Warning: card &CELL ignored
Warning: card / ignored
Warning: card &FCP ignored
Warning: card / ignored
Warning: card &RISM ignored
Warning: card / ignored

     Current dimensions of program PWSCF are:
     Max number of different atomic species (ntypx) = 10
     Max number of k-points (npk) =  40000
     Max angular momentum in pseudopotentials (lmaxx) =  3

     IMPORTANT: XC functional enforced from input :
     Exchange-correlation      = VDW-DF2 ( 1  4 13  0 2 0)
     Any further DFT definition will be discarded
     Please, verify this is what you really want

               file O.pbe-n-kjpaw_psl.1.0.0.UPF: wavefunction(s)  2S 2P renormalized
               file H.pbe-kjpaw_psl.1.0.0.UPF: wavefunction(s)  1S renormalized

     Subspace diagonalization in iterative solution of the eigenvalue problem:
     one sub-group per band group will be used
     ELPA distributed-memory algorithm (size of sub-group:  6*  6 procs)

 
     Parallelization info
     --------------------
     sticks:   dense  smooth     PW     G-vecs:    dense   smooth      PW
     Min         740     296     74               148294    37508    4688
     Max         741     297     76               148300    37516    4690
     Sum       71041   28417   7129             14236565  3601159  450127
 


     bravais-lattice index     =            0
     lattice parameter (alat)  =      37.7945  a.u.
     unit-cell volume          =   53986.6738 (a.u.)^3
     number of atoms/cell      =            3
     number of atomic types    =            2
     number of electrons       =         8.00
     number of Kohn-Sham states=           40
     kinetic-energy cutoff     =      62.4738  Ry
     charge density cutoff     =     624.7385  Ry
     convergence threshold     =      7.3E-12
     mixing beta               =       0.3333
     number of iterations used =           12  plain     mixing
     Exchange-correlation      = VDW-DF2 ( 1  4 13  0 2 0)

     Effective Screening Medium Method
     =================================
     Boundary Conditions: Vacuum-Slab-Vacuum
     total charge in unit cell        =   0.0000
     grid points for fit at edges     =        4 
 

     celldm(1)=  37.794522  celldm(2)=   0.000000  celldm(3)=   0.000000
     celldm(4)=   0.000000  celldm(5)=   0.000000  celldm(6)=   0.000000

     crystal axes: (cart. coord. in units of alat)
               a(1) = (   1.000000   0.000000   0.000000 )  
               a(2) = (   0.000000   1.000000   0.000000 )  
               a(3) = (   0.000000   0.000000   1.000000 )  

     reciprocal axes: (cart. coord. in units 2 pi/alat)
               b(1) = (  1.000000  0.000000  0.000000 )  
               b(2) = (  0.000000  1.000000  0.000000 )  
               b(3) = (  0.000000  0.000000  1.000000 )  


     PseudoPot. # 1 for  O read from file:
     /work/gf93/f93007/QE/pseudo/O.pbe-n-kjpaw_psl.1.0.0.UPF
     MD5 check sum: c61d840054b6bba219e553541e327118
     Pseudo is Projector augmented-wave + core cor, Zval =  6.0
     Generated using "atomic" code by A. Dal Corso  v.6.1 svn rev. 13369
     Shape of augmentation charge: PSQ
     Using radial grid of 1095 points,  4 beta functions with: 
                l(1) =   0
                l(2) =   0
                l(3) =   1
                l(4) =   1
     Q(r) pseudized with 0 coefficients 


     PseudoPot. # 2 for  H read from file:
     /work/gf93/f93007/QE/pseudo/H.pbe-kjpaw_psl.1.0.0.UPF
     MD5 check sum: 29603ce6b94be0cf73e39cbb1f958d8e
     Pseudo is Projector augmented-wave, Zval =  1.0
     Generated using "atomic" code by A. Dal Corso  v.6.1 svn rev. 13369
     Shape of augmentation charge: PSQ
     Using radial grid of  929 points,  2 beta functions with: 
                l(1) =   0
                l(2) =   0
     Q(r) pseudized with 0 coefficients 


     vdW kernel table read from file vdW_kernel_table
     MD5 check sum: 6d69797d2e858e93e031fb7d16d30e50

     atomic species   valence    mass     pseudopotential
        O              6.00    15.99900      O( 1.00)
        H              1.00     1.00800      H( 1.00)

      2 Sym. Ops. (no inversion) found


                                    s                        frac. trans.

      isym =  1     identity                                     

 cryst.   s( 1) = (     1          0          0      )
                  (     0          1          0      )
                  (     0          0          1      )

 cart.    s( 1) = (  1.0000000  0.0000000  0.0000000 )
                  (  0.0000000  1.0000000  0.0000000 )
                  (  0.0000000  0.0000000  1.0000000 )


      isym =  2     inv. 180 deg rotation - cart. axis [1,0,0]   

 cryst.   s( 2) = (    -1          0          0      )
                  (     0          1          0      )
                  (     0          0          1      )

 cart.    s( 2) = ( -1.0000000  0.0000000  0.0000000 )
                  (  0.0000000  1.0000000  0.0000000 )
                  (  0.0000000  0.0000000  1.0000000 )


   Cartesian axes

     site n.     atom                  positions (alat units)
         1           O   tau(   1) = (   0.5000000   0.5000000   0.0001590  )
         2           H   tau(   2) = (   0.5000000   0.5379535   0.0297364  )
         3           H   tau(   3) = (   0.5000000   0.4615465   0.0297364  )

   Crystallographic axes

     site n.     atom                  positions (cryst. coord.)
         1           O   tau(   1) = (  0.5000000  0.5000000  0.0001590  )
         2           H   tau(   2) = (  0.5000000  0.5379535  0.0297364  )
         3           H   tau(   3) = (  0.5000000  0.4615465  0.0297364  )

     number of k points=     1
                       cart. coord. in units 2pi/alat
        k(    1) = (   0.0000000   0.0000000   0.0000000), wk =   2.0000000

                       cryst. coord.
        k(    1) = (   0.0000000   0.0000000   0.0000000), wk =   2.0000000

     Dense  grid: 14236565 G-vectors     FFT dimensions: ( 320, 320, 320)

     Smooth grid:  3601159 G-vectors     FFT dimensions: ( 192, 192, 192)

     Estimated max dynamical RAM per process >     488.77MB

     Estimated total allocated dynamical RAM >   46922.27MB

     Initial potential from superposition of free atoms
     Check: negative starting charge=   -0.001153

     starting charge    7.99998, renormalised to    8.00000

     negative rho (up, down):  1.153E-03 0.000E+00


     %%%%%%%%%%%%%%%%%%%%%%%%%%%%%%%%%%%%%%%%%%%%%%%%%%%%%%%%%%%%%%%%%%%%%%%%
     %                                                                      %
     % You are using vdW-DF, which was implemented by the Thonhauser group. %
     % Please cite the following two papers that made this development      %
     % possible and the two reviews that describe the various versions:     %
     %                                                                      %
     %   T. Thonhauser et al., PRL 115, 136402 (2015).                      %
     %   T. Thonhauser et al., PRB 76, 125112 (2007).                       %
     %   K. Berland et al., Rep. Prog. Phys. 78, 066501 (2015).             %
     %   D.C. Langreth et al., J. Phys.: Condens. Matter 21, 084203 (2009). %
     %                                                                      %
     %                                                                      %
     % If you are calculating the stress with vdW-DF, please also cite:     %
     %                                                                      %
     %   R. Sabatini et al., J. Phys.: Condens. Matter 24, 424209 (2012).   %
     %                                                                      %
     %%%%%%%%%%%%%%%%%%%%%%%%%%%%%%%%%%%%%%%%%%%%%%%%%%%%%%%%%%%%%%%%%%%%%%%%


     Carrying out vdW-DF run using the following parameters:
     Nqs    =  20  Npoints =  1024  r_max =  100.000
     q_mesh =  0.00001000  0.04494208  0.09755937  0.15916263
               0.23128650  0.31572767  0.41458969  0.53033537
               0.66584808  0.82450364  1.01025438  1.22772762
               1.48234092  1.78043706  2.12944203  2.53805004
               3.01644009  3.57652955  4.23227104  5.00000000


     -----------------------------------------------
     Non-local corr. energy    =       0.13359674 Ry
     -----------------------------------------------

     Starting wfc are    6 randomized atomic wfcs +   34 random wfc
     Checking if some PAW data can be deallocated... 
       node    0, deallocated PAW data for type:  2
       node    1, deallocated PAW data for type:  2
       node    2, deallocated PAW data for type:  2
       node    3, deallocated PAW data for type:  2
       node    4, deallocated PAW data for type:  2
       node    5, deallocated PAW data for type:  2
       node    6, deallocated PAW data for type:  2
       node    7, deallocated PAW data for type:  2
       node    8, deallocated PAW data for type:  2
       node    9, deallocated PAW data for type:  2
       node   10, deallocated PAW data for type:  2
       node   11, deallocated PAW data for type:  2
       node   12, deallocated PAW data for type:  2
       node   13, deallocated PAW data for type:  2
       node   14, deallocated PAW data for type:  2
       node   15, deallocated PAW data for type:  2
       node   16, deallocated PAW data for type:  2
       node   17, deallocated PAW data for type:  2
       node   18, deallocated PAW data for type:  2
       node   19, deallocated PAW data for type:  2
       node   20, deallocated PAW data for type:  2
       node   21, deallocated PAW data for type:  2
       node   22, deallocated PAW data for type:  2
       node   23, deallocated PAW data for type:  2
       node   24, deallocated PAW data for type:  2
       node   25, deallocated PAW data for type:  2
       node   26, deallocated PAW data for type:  2
       node   27, deallocated PAW data for type:  2
       node   28, deallocated PAW data for type:  2
       node   29, deallocated PAW data for type:  2
       node   30, deallocated PAW data for type:  2
       node   31, deallocated PAW data for type:  2
       node   32, deallocated PAW data for type:  1
       node   33, deallocated PAW data for type:  1
       node   34, deallocated PAW data for type:  1
       node   35, deallocated PAW data for type:  1
       node   36, deallocated PAW data for type:  1
       node   37, deallocated PAW data for type:  1
       node   38, deallocated PAW data for type:  1
       node   39, deallocated PAW data for type:  1
       node   40, deallocated PAW data for type:  1
       node   41, deallocated PAW data for type:  1
       node   42, deallocated PAW data for type:  1
       node   43, deallocated PAW data for type:  1
       node   44, deallocated PAW data for type:  1
       node   45, deallocated PAW data for type:  1
       node   46, deallocated PAW data for type:  1
       node   47, deallocated PAW data for type:  1
       node   48, deallocated PAW data for type:  1
       node   49, deallocated PAW data for type:  1
       node   50, deallocated PAW data for type:  1
       node   51, deallocated PAW data for type:  1
       node   52, deallocated PAW data for type:  1
       node   53, deallocated PAW data for type:  1
       node   54, deallocated PAW data for type:  1
       node   55, deallocated PAW data for type:  1
       node   56, deallocated PAW data for type:  1
       node   57, deallocated PAW data for type:  1
       node   58, deallocated PAW data for type:  1
       node   59, deallocated PAW data for type:  1
       node   60, deallocated PAW data for type:  1
       node   61, deallocated PAW data for type:  1
       node   62, deallocated PAW data for type:  1
       node   63, deallocated PAW data for type:  1
       node   64, deallocated PAW data for type:  1
       node   65, deallocated PAW data for type:  1
       node   66, deallocated PAW data for type:  1
       node   67, deallocated PAW data for type:  1
       node   68, deallocated PAW data for type:  1
       node   69, deallocated PAW data for type:  1
       node   70, deallocated PAW data for type:  1
       node   71, deallocated PAW data for type:  1
       node   72, deallocated PAW data for type:  1
       node   73, deallocated PAW data for type:  1
       node   74, deallocated PAW data for type:  1
       node   75, deallocated PAW data for type:  1
       node   76, deallocated PAW data for type:  1
       node   77, deallocated PAW data for type:  1
       node   78, deallocated PAW data for type:  1
       node   79, deallocated PAW data for type:  1
       node   80, deallocated PAW data for type:  1
       node   81, deallocated PAW data for type:  1
       node   82, deallocated PAW data for type:  1
       node   83, deallocated PAW data for type:  1
       node   84, deallocated PAW data for type:  1
       node   85, deallocated PAW data for type:  1
       node   86, deallocated PAW data for type:  1
       node   87, deallocated PAW data for type:  1
       node   88, deallocated PAW data for type:  1
       node   89, deallocated PAW data for type:  1
       node   90, deallocated PAW data for type:  1
       node   91, deallocated PAW data for type:  1
       node   92, deallocated PAW data for type:  1
       node   93, deallocated PAW data for type:  1
       node   94, deallocated PAW data for type:  1
       node   95, deallocated PAW data for type:  1

     total cpu time spent up to now is       25.5 secs

     per-process dynamical memory:   235.5 Mb

     Self-consistent Calculation

     iteration #  1     ecut=    62.47 Ry     beta=0.33
     Davidson diagonalization with overlap
     ethr =  1.00E-02,  avg # of iterations = 12.0

     negative rho (up, down):  1.367E-03 0.000E+00


     -----------------------------------------------
     Non-local corr. energy    =       0.13512489 Ry
     -----------------------------------------------


     total cpu time spent up to now is       35.0 secs

     total energy              =     -44.94347200 Ry
     Harris-Foulkes estimate   =     -45.19910286 Ry
     estimated scf accuracy    <       0.54263987 Ry

     iteration #  2     ecut=    62.47 Ry     beta=0.33
     Davidson diagonalization with overlap
     ethr =  6.78E-03,  avg # of iterations =  1.0

     negative rho (up, down):  8.995E-04 0.000E+00


     -----------------------------------------------
     Non-local corr. energy    =       0.13570682 Ry
     -----------------------------------------------


     total cpu time spent up to now is       41.7 secs

     total energy              =     -44.98568162 Ry
     Harris-Foulkes estimate   =     -45.00573248 Ry
     estimated scf accuracy    <       0.04874769 Ry

     iteration #  3     ecut=    62.47 Ry     beta=0.33
     Davidson diagonalization with overlap
     ethr =  6.09E-04,  avg # of iterations =  6.0

     negative rho (up, down):  1.521E-03 0.000E+00


     -----------------------------------------------
     Non-local corr. energy    =       0.13506679 Ry
     -----------------------------------------------


     total cpu time spent up to now is       49.6 secs

     total energy              =     -45.00628779 Ry
     Harris-Foulkes estimate   =     -45.03689527 Ry
     estimated scf accuracy    <       0.04640412 Ry

     iteration #  4     ecut=    62.47 Ry     beta=0.33
     Davidson diagonalization with overlap
     ethr =  5.80E-04,  avg # of iterations =  3.0

     negative rho (up, down):  1.561E-03 0.000E+00


     -----------------------------------------------
     Non-local corr. energy    =       0.13638141 Ry
     -----------------------------------------------


     total cpu time spent up to now is       56.4 secs

     total energy              =     -45.00948338 Ry
     Harris-Foulkes estimate   =     -45.04491666 Ry
     estimated scf accuracy    <       0.06939253 Ry

     iteration #  5     ecut=    62.47 Ry     beta=0.33
     Davidson diagonalization with overlap
     ethr =  5.80E-04,  avg # of iterations =  4.0

     negative rho (up, down):  1.532E-03 0.000E+00


     -----------------------------------------------
     Non-local corr. energy    =       0.13636409 Ry
     -----------------------------------------------


     total cpu time spent up to now is       63.4 secs

     total energy              =     -45.02000089 Ry
     Harris-Foulkes estimate   =     -45.02003179 Ry
     estimated scf accuracy    <       0.00143921 Ry

     iteration #  6     ecut=    62.47 Ry     beta=0.33
     Davidson diagonalization with overlap
     ethr =  1.80E-05,  avg # of iterations = 14.0

     negative rho (up, down):  1.530E-03 0.000E+00


     -----------------------------------------------
     Non-local corr. energy    =       0.13627830 Ry
     -----------------------------------------------


     total cpu time spent up to now is       72.7 secs

     total energy              =     -45.02457117 Ry
     Harris-Foulkes estimate   =     -45.02480355 Ry
     estimated scf accuracy    <       0.00079640 Ry

     iteration #  7     ecut=    62.47 Ry     beta=0.33
     Davidson diagonalization with overlap
     ethr =  9.96E-06,  avg # of iterations =  1.0

     negative rho (up, down):  1.650E-03 0.000E+00


     -----------------------------------------------
     Non-local corr. energy    =       0.13617168 Ry
     -----------------------------------------------


     total cpu time spent up to now is       79.3 secs

     total energy              =     -45.02434953 Ry
     Harris-Foulkes estimate   =     -45.02459333 Ry
     estimated scf accuracy    <       0.00031835 Ry

     iteration #  8     ecut=    62.47 Ry     beta=0.33
     Davidson diagonalization with overlap
     ethr =  3.98E-06,  avg # of iterations =  3.0

     negative rho (up, down):  1.627E-03 0.000E+00


     -----------------------------------------------
     Non-local corr. energy    =       0.13619286 Ry
     -----------------------------------------------


     total cpu time spent up to now is       86.2 secs

     total energy              =     -45.02457507 Ry
     Harris-Foulkes estimate   =     -45.02472733 Ry
     estimated scf accuracy    <       0.00059817 Ry

     iteration #  9     ecut=    62.47 Ry     beta=0.33
     Davidson diagonalization with overlap
     ethr =  3.98E-06,  avg # of iterations =  1.0

     negative rho (up, down):  1.626E-03 0.000E+00


     -----------------------------------------------
     Non-local corr. energy    =       0.13619585 Ry
     -----------------------------------------------


     total cpu time spent up to now is       92.8 secs

     total energy              =     -45.02457380 Ry
     Harris-Foulkes estimate   =     -45.02458866 Ry
     estimated scf accuracy    <       0.00027782 Ry

     iteration # 10     ecut=    62.47 Ry     beta=0.33
     Davidson diagonalization with overlap
     ethr =  3.47E-06,  avg # of iterations =  1.0

     negative rho (up, down):  1.627E-03 0.000E+00


     -----------------------------------------------
     Non-local corr. energy    =       0.13619582 Ry
     -----------------------------------------------


     total cpu time spent up to now is       99.5 secs

     total energy              =     -45.02457940 Ry
     Harris-Foulkes estimate   =     -45.02458125 Ry
     estimated scf accuracy    <       0.00021034 Ry

     iteration # 11     ecut=    62.47 Ry     beta=0.33
     Davidson diagonalization with overlap
     ethr =  2.63E-06,  avg # of iterations =  1.0

     negative rho (up, down):  1.626E-03 0.000E+00


     -----------------------------------------------
     Non-local corr. energy    =       0.13619703 Ry
     -----------------------------------------------


     total cpu time spent up to now is      106.1 secs

     total energy              =     -45.02457820 Ry
     Harris-Foulkes estimate   =     -45.02458339 Ry
     estimated scf accuracy    <       0.00017795 Ry

     iteration # 12     ecut=    62.47 Ry     beta=0.33
     Davidson diagonalization with overlap
     ethr =  2.22E-06,  avg # of iterations =  1.0

     negative rho (up, down):  1.626E-03 0.000E+00


     -----------------------------------------------
     Non-local corr. energy    =       0.13619671 Ry
     -----------------------------------------------


     total cpu time spent up to now is      112.7 secs

     total energy              =     -45.02458511 Ry
     Harris-Foulkes estimate   =     -45.02458396 Ry
     estimated scf accuracy    <       0.00013116 Ry

     iteration # 13     ecut=    62.47 Ry     beta=0.33
     Davidson diagonalization with overlap
     ethr =  1.64E-06,  avg # of iterations =  1.0

     negative rho (up, down):  1.625E-03 0.000E+00


     -----------------------------------------------
     Non-local corr. energy    =       0.13619816 Ry
     -----------------------------------------------


     total cpu time spent up to now is      119.5 secs

     total energy              =     -45.02458388 Ry
     Harris-Foulkes estimate   =     -45.02458735 Ry
     estimated scf accuracy    <       0.00011989 Ry

     iteration # 14     ecut=    62.47 Ry     beta=0.33
     Davidson diagonalization with overlap
     ethr =  1.50E-06,  avg # of iterations =  1.0

     negative rho (up, down):  1.614E-03 0.000E+00


     -----------------------------------------------
     Non-local corr. energy    =       0.13621002 Ry
     -----------------------------------------------


     total cpu time spent up to now is      126.2 secs

     total energy              =     -45.02456537 Ry
     Harris-Foulkes estimate   =     -45.02458685 Ry
     estimated scf accuracy    <       0.00008791 Ry

     iteration # 15     ecut=    62.47 Ry     beta=0.33
     Davidson diagonalization with overlap
     ethr =  1.10E-06,  avg # of iterations =  1.0

     negative rho (up, down):  1.611E-03 0.000E+00


     -----------------------------------------------
     Non-local corr. energy    =       0.13621116 Ry
     -----------------------------------------------


     total cpu time spent up to now is      132.9 secs

     total energy              =     -45.02456668 Ry
     Harris-Foulkes estimate   =     -45.02456871 Ry
     estimated scf accuracy    <       0.00003325 Ry

     iteration # 16     ecut=    62.47 Ry     beta=0.33
     Davidson diagonalization with overlap
     ethr =  4.16E-07,  avg # of iterations =  2.0

     negative rho (up, down):  1.609E-03 0.000E+00


     -----------------------------------------------
     Non-local corr. energy    =       0.13621150 Ry
     -----------------------------------------------


     total cpu time spent up to now is      139.7 secs

     total energy              =     -45.02456972 Ry
     Harris-Foulkes estimate   =     -45.02456945 Ry
     estimated scf accuracy    <       0.00001855 Ry

     iteration # 17     ecut=    62.47 Ry     beta=0.33
     Davidson diagonalization with overlap
     ethr =  2.32E-07,  avg # of iterations =  1.0

     negative rho (up, down):  1.608E-03 0.000E+00


     -----------------------------------------------
     Non-local corr. energy    =       0.13621151 Ry
     -----------------------------------------------


     total cpu time spent up to now is      146.4 secs

     total energy              =     -45.02457019 Ry
     Harris-Foulkes estimate   =     -45.02457015 Ry
     estimated scf accuracy    <       0.00001686 Ry

     iteration # 18     ecut=    62.47 Ry     beta=0.33
     Davidson diagonalization with overlap
     ethr =  2.11E-07,  avg # of iterations =  1.0

     negative rho (up, down):  1.593E-03 0.000E+00


     -----------------------------------------------
     Non-local corr. energy    =       0.13621011 Ry
     -----------------------------------------------


     total cpu time spent up to now is      153.1 secs

     total energy              =     -45.02456894 Ry
     Harris-Foulkes estimate   =     -45.02457040 Ry
     estimated scf accuracy    <       0.00001621 Ry

     iteration # 19     ecut=    62.47 Ry     beta=0.33
     Davidson diagonalization with overlap
     ethr =  2.03E-07,  avg # of iterations =  1.0

     negative rho (up, down):  1.589E-03 0.000E+00


     -----------------------------------------------
     Non-local corr. energy    =       0.13620952 Ry
     -----------------------------------------------


     total cpu time spent up to now is      159.8 secs

     total energy              =     -45.02457273 Ry
     Harris-Foulkes estimate   =     -45.02456930 Ry
     estimated scf accuracy    <       0.00001013 Ry

     iteration # 20     ecut=    62.47 Ry     beta=0.33
     Davidson diagonalization with overlap
     ethr =  1.27E-07,  avg # of iterations =  1.0

     negative rho (up, down):  1.589E-03 0.000E+00


     -----------------------------------------------
     Non-local corr. energy    =       0.13620940 Ry
     -----------------------------------------------


     total cpu time spent up to now is      166.6 secs

     total energy              =     -45.02457383 Ry
     Harris-Foulkes estimate   =     -45.02457306 Ry
     estimated scf accuracy    <       0.00001783 Ry

     iteration # 21     ecut=    62.47 Ry     beta=0.33
     Davidson diagonalization with overlap
     ethr =  1.27E-07,  avg # of iterations =  1.0

     negative rho (up, down):  1.589E-03 0.000E+00


     -----------------------------------------------
     Non-local corr. energy    =       0.13621357 Ry
     -----------------------------------------------


     total cpu time spent up to now is      173.3 secs

     total energy              =     -45.02457156 Ry
     Harris-Foulkes estimate   =     -45.02457399 Ry
     estimated scf accuracy    <       0.00002008 Ry

     iteration # 22     ecut=    62.47 Ry     beta=0.33
     Davidson diagonalization with overlap
     ethr =  1.27E-07,  avg # of iterations =  1.0

     negative rho (up, down):  1.588E-03 0.000E+00


     -----------------------------------------------
     Non-local corr. energy    =       0.13621531 Ry
     -----------------------------------------------


     total cpu time spent up to now is      180.0 secs

     total energy              =     -45.02457087 Ry
     Harris-Foulkes estimate   =     -45.02457170 Ry
     estimated scf accuracy    <       0.00001410 Ry

     iteration # 23     ecut=    62.47 Ry     beta=0.33
     Davidson diagonalization with overlap
     ethr =  1.27E-07,  avg # of iterations =  1.0

     negative rho (up, down):  1.591E-03 0.000E+00


     -----------------------------------------------
     Non-local corr. energy    =       0.13621617 Ry
     -----------------------------------------------


     total cpu time spent up to now is      186.7 secs

     total energy              =     -45.02457036 Ry
     Harris-Foulkes estimate   =     -45.02457093 Ry
     estimated scf accuracy    <       0.00001131 Ry

     iteration # 24     ecut=    62.47 Ry     beta=0.33
     Davidson diagonalization with overlap
     ethr =  1.27E-07,  avg # of iterations =  1.0

     negative rho (up, down):  1.589E-03 0.000E+00


     -----------------------------------------------
     Non-local corr. energy    =       0.13620441 Ry
     -----------------------------------------------


     total cpu time spent up to now is      193.4 secs

     total energy              =     -45.02456981 Ry
     Harris-Foulkes estimate   =     -45.02457039 Ry
     estimated scf accuracy    <       0.00001047 Ry

     iteration # 25     ecut=    62.47 Ry     beta=0.33
     Davidson diagonalization with overlap
     ethr =  1.27E-07,  avg # of iterations =  1.0

     negative rho (up, down):  1.589E-03 0.000E+00


     -----------------------------------------------
     Non-local corr. energy    =       0.13620600 Ry
     -----------------------------------------------


     total cpu time spent up to now is      200.2 secs

     total energy              =     -45.02456925 Ry
     Harris-Foulkes estimate   =     -45.02456985 Ry
     estimated scf accuracy    <       0.00000766 Ry

     iteration # 26     ecut=    62.47 Ry     beta=0.33
     Davidson diagonalization with overlap
     ethr =  9.57E-08,  avg # of iterations =  1.0

     negative rho (up, down):  1.580E-03 0.000E+00


     -----------------------------------------------
     Non-local corr. energy    =       0.13621501 Ry
     -----------------------------------------------


     total cpu time spent up to now is      206.8 secs

     total energy              =     -45.02456724 Ry
     Harris-Foulkes estimate   =     -45.02456938 Ry
     estimated scf accuracy    <       0.00000534 Ry

     iteration # 27     ecut=    62.47 Ry     beta=0.33
     Davidson diagonalization with overlap
     ethr =  6.68E-08,  avg # of iterations =  1.0

     negative rho (up, down):  1.574E-03 0.000E+00


     -----------------------------------------------
     Non-local corr. energy    =       0.13621407 Ry
     -----------------------------------------------


     total cpu time spent up to now is      213.6 secs

     total energy              =     -45.02456825 Ry
     Harris-Foulkes estimate   =     -45.02456788 Ry
     estimated scf accuracy    <       0.00000054 Ry

     iteration # 28     ecut=    62.47 Ry     beta=0.33
     Davidson diagonalization with overlap
     ethr =  6.77E-09,  avg # of iterations =  4.0

     negative rho (up, down):  1.576E-03 0.000E+00


     -----------------------------------------------
     Non-local corr. energy    =       0.13621649 Ry
     -----------------------------------------------


     total cpu time spent up to now is      220.6 secs

     total energy              =     -45.02456921 Ry
     Harris-Foulkes estimate   =     -45.02456921 Ry
     estimated scf accuracy    <       0.00000029 Ry

     iteration # 29     ecut=    62.47 Ry     beta=0.33
     Davidson diagonalization with overlap
     ethr =  3.58E-09,  avg # of iterations =  1.0

     negative rho (up, down):  1.570E-03 0.000E+00


     -----------------------------------------------
     Non-local corr. energy    =       0.13621117 Ry
     -----------------------------------------------


     total cpu time spent up to now is      227.4 secs

     total energy              =     -45.02456926 Ry
     Harris-Foulkes estimate   =     -45.02456923 Ry
     estimated scf accuracy    <       0.00000059 Ry

     iteration # 30     ecut=    62.47 Ry     beta=0.33
     Davidson diagonalization with overlap
     ethr =  3.58E-09,  avg # of iterations =  3.0

     negative rho (up, down):  1.575E-03 0.000E+00


     -----------------------------------------------
     Non-local corr. energy    =       0.13621108 Ry
     -----------------------------------------------


     total cpu time spent up to now is      234.3 secs

     total energy              =     -45.02456918 Ry
     Harris-Foulkes estimate   =     -45.02456950 Ry
     estimated scf accuracy    <       0.00000022 Ry

     iteration # 31     ecut=    62.47 Ry     beta=0.33
     Davidson diagonalization with overlap
     ethr =  2.77E-09,  avg # of iterations =  1.0

     negative rho (up, down):  1.576E-03 0.000E+00


     -----------------------------------------------
     Non-local corr. energy    =       0.13621284 Ry
     -----------------------------------------------


     total cpu time spent up to now is      241.0 secs

     total energy              =     -45.02456898 Ry
     Harris-Foulkes estimate   =     -45.02456919 Ry
     estimated scf accuracy    <       0.00000009 Ry

     iteration # 32     ecut=    62.47 Ry     beta=0.33
     Davidson diagonalization with overlap
     ethr =  1.18E-09,  avg # of iterations =  3.0

     negative rho (up, down):  1.574E-03 0.000E+00


     -----------------------------------------------
     Non-local corr. energy    =       0.13621299 Ry
     -----------------------------------------------


     total cpu time spent up to now is      248.0 secs

     total energy              =     -45.02456904 Ry
     Harris-Foulkes estimate   =     -45.02456904 Ry
     estimated scf accuracy    <       0.00000006 Ry

     iteration # 33     ecut=    62.47 Ry     beta=0.33
     Davidson diagonalization with overlap
     ethr =  7.78E-10,  avg # of iterations =  1.0

     negative rho (up, down):  1.573E-03 0.000E+00


     -----------------------------------------------
     Non-local corr. energy    =       0.13621328 Ry
     -----------------------------------------------


     total cpu time spent up to now is      254.7 secs

     total energy              =     -45.02456911 Ry
     Harris-Foulkes estimate   =     -45.02456904 Ry
     estimated scf accuracy    <       0.00000010 Ry

     iteration # 34     ecut=    62.47 Ry     beta=0.33
     Davidson diagonalization with overlap
     ethr =  7.78E-10,  avg # of iterations =  2.0

     negative rho (up, down):  1.573E-03 0.000E+00


     -----------------------------------------------
     Non-local corr. energy    =       0.13621319 Ry
     -----------------------------------------------


     total cpu time spent up to now is      261.5 secs

     total energy              =     -45.02456909 Ry
     Harris-Foulkes estimate   =     -45.02456911 Ry
     estimated scf accuracy    <       0.00000021 Ry

     iteration # 35     ecut=    62.47 Ry     beta=0.33
     Davidson diagonalization with overlap
     ethr =  7.78E-10,  avg # of iterations =  1.0

     negative rho (up, down):  1.573E-03 0.000E+00


     -----------------------------------------------
     Non-local corr. energy    =       0.13621312 Ry
     -----------------------------------------------


     total cpu time spent up to now is      268.2 secs

     total energy              =     -45.02456911 Ry
     Harris-Foulkes estimate   =     -45.02456909 Ry
     estimated scf accuracy    <       0.00000015 Ry

     iteration # 36     ecut=    62.47 Ry     beta=0.33
     Davidson diagonalization with overlap
     ethr =  7.78E-10,  avg # of iterations =  1.0

     negative rho (up, down):  1.573E-03 0.000E+00


     -----------------------------------------------
     Non-local corr. energy    =       0.13621291 Ry
     -----------------------------------------------


     total cpu time spent up to now is      274.9 secs

     total energy              =     -45.02456907 Ry
     Harris-Foulkes estimate   =     -45.02456911 Ry
     estimated scf accuracy    <       0.00000017 Ry

     iteration # 37     ecut=    62.47 Ry     beta=0.33
     Davidson diagonalization with overlap
     ethr =  7.78E-10,  avg # of iterations =  1.0

     negative rho (up, down):  1.574E-03 0.000E+00


     -----------------------------------------------
     Non-local corr. energy    =       0.13621298 Ry
     -----------------------------------------------


     total cpu time spent up to now is      281.6 secs

     total energy              =     -45.02456903 Ry
     Harris-Foulkes estimate   =     -45.02456907 Ry
     estimated scf accuracy    <       0.00000011 Ry

     iteration # 38     ecut=    62.47 Ry     beta=0.33
     Davidson diagonalization with overlap
     ethr =  7.78E-10,  avg # of iterations =  2.0

     negative rho (up, down):  1.574E-03 0.000E+00


     -----------------------------------------------
     Non-local corr. energy    =       0.13621304 Ry
     -----------------------------------------------


     total cpu time spent up to now is      288.4 secs

     total energy              =     -45.02456904 Ry
     Harris-Foulkes estimate   =     -45.02456904 Ry
     estimated scf accuracy    <       0.00000005 Ry

     iteration # 39     ecut=    62.47 Ry     beta=0.33
     Davidson diagonalization with overlap
     ethr =  6.20E-10,  avg # of iterations =  1.0

     negative rho (up, down):  1.574E-03 0.000E+00


     -----------------------------------------------
     Non-local corr. energy    =       0.13621306 Ry
     -----------------------------------------------


     total cpu time spent up to now is      295.2 secs

     total energy              =     -45.02456903 Ry
     Harris-Foulkes estimate   =     -45.02456904 Ry
     estimated scf accuracy    <       0.00000004 Ry

     iteration # 40     ecut=    62.47 Ry     beta=0.33
     Davidson diagonalization with overlap
     ethr =  5.50E-10,  avg # of iterations =  1.0

     negative rho (up, down):  1.574E-03 0.000E+00


     -----------------------------------------------
     Non-local corr. energy    =       0.13621318 Ry
     -----------------------------------------------


     total cpu time spent up to now is      301.9 secs

     total energy              =     -45.02456899 Ry
     Harris-Foulkes estimate   =     -45.02456903 Ry
     estimated scf accuracy    <       0.00000003 Ry

     iteration # 41     ecut=    62.47 Ry     beta=0.33
     Davidson diagonalization with overlap
     ethr =  4.04E-10,  avg # of iterations =  3.0

     negative rho (up, down):  1.574E-03 0.000E+00


     -----------------------------------------------
     Non-local corr. energy    =       0.13621291 Ry
     -----------------------------------------------


     total cpu time spent up to now is      308.8 secs

     total energy              =     -45.02456900 Ry
     Harris-Foulkes estimate   =     -45.02456900 Ry
     estimated scf accuracy    <          1.8E-09 Ry

     iteration # 42     ecut=    62.47 Ry     beta=0.33
     Davidson diagonalization with overlap
     ethr =  2.22E-11,  avg # of iterations =  3.0

     negative rho (up, down):  1.574E-03 0.000E+00


     -----------------------------------------------
     Non-local corr. energy    =       0.13621283 Ry
     -----------------------------------------------


     total cpu time spent up to now is      315.7 secs

     total energy              =     -45.02456899 Ry
     Harris-Foulkes estimate   =     -45.02456900 Ry
     estimated scf accuracy    <          1.3E-09 Ry

     iteration # 43     ecut=    62.47 Ry     beta=0.33
     Davidson diagonalization with overlap
     ethr =  1.63E-11,  avg # of iterations =  1.0

     negative rho (up, down):  1.574E-03 0.000E+00


     -----------------------------------------------
     Non-local corr. energy    =       0.13621289 Ry
     -----------------------------------------------


     total cpu time spent up to now is      322.4 secs

     total energy              =     -45.02456900 Ry
     Harris-Foulkes estimate   =     -45.02456899 Ry
     estimated scf accuracy    <          1.1E-10 Ry

     iteration # 44     ecut=    62.47 Ry     beta=0.33
     Davidson diagonalization with overlap
     ethr =  1.40E-12,  avg # of iterations =  4.0

     negative rho (up, down):  1.574E-03 0.000E+00


     -----------------------------------------------
     Non-local corr. energy    =       0.13621288 Ry
     -----------------------------------------------


     total cpu time spent up to now is      329.5 secs

     total energy              =     -45.02456900 Ry
     Harris-Foulkes estimate   =     -45.02456900 Ry
     estimated scf accuracy    <          1.7E-10 Ry

     iteration # 45     ecut=    62.47 Ry     beta=0.33
     Davidson diagonalization with overlap
     ethr =  1.40E-12,  avg # of iterations =  1.0

     negative rho (up, down):  1.574E-03 0.000E+00


     -----------------------------------------------
     Non-local corr. energy    =       0.13621288 Ry
     -----------------------------------------------


     total cpu time spent up to now is      336.2 secs

     total energy              =     -45.02456899 Ry
     Harris-Foulkes estimate   =     -45.02456900 Ry
     estimated scf accuracy    <          8.2E-11 Ry

     iteration # 46     ecut=    62.47 Ry     beta=0.33
     Davidson diagonalization with overlap
     ethr =  1.02E-12,  avg # of iterations =  1.0

     negative rho (up, down):  1.574E-03 0.000E+00


     -----------------------------------------------
     Non-local corr. energy    =       0.13621289 Ry
     -----------------------------------------------


     total cpu time spent up to now is      342.9 secs

     total energy              =     -45.02456899 Ry
     Harris-Foulkes estimate   =     -45.02456899 Ry
     estimated scf accuracy    <          1.5E-11 Ry

     iteration # 47     ecut=    62.47 Ry     beta=0.33
     Davidson diagonalization with overlap
     ethr =  1.93E-13,  avg # of iterations =  4.0

     negative rho (up, down):  1.574E-03 0.000E+00


     -----------------------------------------------
     Non-local corr. energy    =       0.13621290 Ry
     -----------------------------------------------


     total cpu time spent up to now is      350.0 secs

     total energy              =     -45.02456899 Ry
     Harris-Foulkes estimate   =     -45.02456899 Ry
     estimated scf accuracy    <          5.7E-11 Ry

     iteration # 48     ecut=    62.47 Ry     beta=0.33
     Davidson diagonalization with overlap
     ethr =  1.93E-13,  avg # of iterations =  1.0

     negative rho (up, down):  1.574E-03 0.000E+00


     -----------------------------------------------
     Non-local corr. energy    =       0.13621290 Ry
     -----------------------------------------------


     total cpu time spent up to now is      356.7 secs

     total energy              =     -45.02456899 Ry
     Harris-Foulkes estimate   =     -45.02456899 Ry
     estimated scf accuracy    <          1.4E-11 Ry

     iteration # 49     ecut=    62.47 Ry     beta=0.33
     Davidson diagonalization with overlap
     ethr =  1.81E-13,  avg # of iterations =  3.0

     negative rho (up, down):  1.574E-03 0.000E+00


     -----------------------------------------------
     Non-local corr. energy    =       0.13621290 Ry
     -----------------------------------------------


     total cpu time spent up to now is      363.5 secs

     End of self-consistent calculation

          k = 0.0000 0.0000 0.0000 (450127 PWs)   bands (ev):

   -25.6743 -13.5677  -9.7165  -7.6666  -1.4590  -0.1532   0.0000   0.1333
     0.1430   0.1857   0.2113   0.3029   0.3168   0.4479   0.4678   0.5454
     0.5465   0.5494   0.5597   0.5767   0.5871   0.5880   0.5883   0.7584
     0.7790   0.8643   0.8804   0.9202   0.9282   0.9421   0.9552   1.0787
     1.1147   1.2061   1.2256   1.2633   1.2926   1.3858   1.4180   1.4996

     occupation numbers 
     1.0000   1.0000   1.0000   1.0000   0.0000   0.0000   0.0000   0.0000
     0.0000   0.0000   0.0000   0.0000   0.0000   0.0000   0.0000   0.0000
     0.0000   0.0000   0.0000   0.0000   0.0000   0.0000   0.0000   0.0000
     0.0000   0.0000   0.0000   0.0000   0.0000   0.0000   0.0000   0.0000
     0.0000   0.0000   0.0000   0.0000   0.0000   0.0000   0.0000   0.0000

     highest occupied, lowest unoccupied level (ev):    -7.6666   -1.4590

!    total energy              =     -45.02456899 Ry
     Harris-Foulkes estimate   =     -45.02456899 Ry
     estimated scf accuracy    <          1.7E-12 Ry

     total all-electron energy =      -153.871451 Ry

     The total energy is the sum of the following terms:

     one-electron contribution =     -68.95536089 Ry
     hartree contribution      =      36.16112816 Ry
     xc contribution           =      -9.23615401 Ry
     ewald contribution        =       7.23163431 Ry
     one-center paw contrib.   =     -10.22581656 Ry
      -> PAW hartree energy AE =      27.97573652 Ry
      -> PAW hartree energy PS =     -27.94100991 Ry
      -> PAW xc energy AE      =     -17.91591805 Ry
      -> PAW xc energy PS      =       7.65662319 Ry
      -> total E_H with PAW    =      36.19585477 Ry
      -> total E_XC with PAW   =     -19.49544887 Ry

     convergence has been achieved in  49 iterations

     negative rho (up, down):  1.574E-03 0.000E+00


     -----------------------------------------------
     Non-local corr. energy    =       0.13621290 Ry
     -----------------------------------------------


     Forces acting on atoms (cartesian axes, Ry/au):

     atom    1 type  1   force =     0.00000000   -0.01206593   -0.00712742
     atom    2 type  2   force =     0.00000000    0.01324628    0.00826166
     atom    3 type  2   force =     0.00000000   -0.00118034   -0.00112761
     The non-local contrib.  to forces
     atom    1 type  1   force =     0.00000000   -0.00262715    2.52431837
     atom    2 type  2   force =     0.00000000   -0.09460379   -0.06805963
     atom    3 type  2   force =     0.00000000    0.09239342   -0.06545651
     The ionic contribution  to forces
     atom    1 type  1   force =     0.00000000   -0.03263253   -4.41112309
     atom    2 type  2   force =     0.00000000    3.09988146    2.23260449
     atom    3 type  2   force =     0.00000000   -3.06724893    2.17851859
     The local contribution  to forces
     atom    1 type  1   force =    -0.00001464    0.02311925    1.90390480
     atom    2 type  2   force =    -0.00000130   -2.99203116   -2.15628293
     atom    3 type  2   force =    -0.00000128    2.97367485   -2.11418944
     The core correction contribution to forces
     atom    1 type  1   force =     0.00000014    0.00007445   -0.02422693
     atom    2 type  2   force =     0.00000000    0.00000000    0.00000000
     atom    3 type  2   force =     0.00000000    0.00000000    0.00000000
     The Hubbard contrib.    to forces
     atom    1 type  1   force =     0.00000000    0.00000000    0.00000000
     atom    2 type  2   force =     0.00000000    0.00000000    0.00000000
     atom    3 type  2   force =     0.00000000    0.00000000    0.00000000
     The SCF correction term to forces
     atom    1 type  1   force =    -0.00000001    0.00000001   -0.00000057
     atom    2 type  2   force =     0.00000000   -0.00000028   -0.00000028
     atom    3 type  2   force =     0.00000000    0.00000027   -0.00000026

     Total force =     0.021042     Total SCF correction =     0.000001

     Writing output data file H2O_IR.save
 
     init_run     :     44.95s CPU     23.86s WALL (       1 calls)
     electrons    :    660.12s CPU    338.98s WALL (       1 calls)
     forces       :     14.70s CPU      7.61s WALL (       1 calls)

     Called by init_run:
     wfcinit      :      0.39s CPU      0.39s WALL (       1 calls)
     wfcinit:atom :      0.00s CPU      0.00s WALL (       1 calls)
     wfcinit:wfcr :      0.36s CPU      0.36s WALL (       1 calls)
     potinit      :     14.10s CPU      7.05s WALL (       1 calls)

     Called by electrons:
     c_bands      :     90.54s CPU     46.62s WALL (      49 calls)
     sum_band     :     41.81s CPU     22.47s WALL (      49 calls)
     v_of_rho     :    505.79s CPU    258.35s WALL (      50 calls)
     v_h          :      4.18s CPU      3.31s WALL (      50 calls)
     v_xc         :    510.67s CPU    260.10s WALL (      51 calls)
     newd         :     13.27s CPU      7.07s WALL (      50 calls)
     PAW_pot      :      3.92s CPU      1.89s WALL (      50 calls)
     mix_rho      :     10.08s CPU      4.95s WALL (      49 calls)

     Called by c_bands:
     init_us_2    :      0.08s CPU      0.09s WALL (      99 calls)
     cegterg      :     90.41s CPU     46.49s WALL (      49 calls)

     Called by sum_band:
     sum_band:bec :      0.00s CPU      0.00s WALL (      49 calls)
     addusdens    :      7.09s CPU      4.05s WALL (      49 calls)

     Called by *egterg:
     h_psi        :     69.04s CPU     33.02s WALL (     157 calls)
     s_psi        :      0.04s CPU      0.04s WALL (     157 calls)
     g_psi        :      0.02s CPU      0.02s WALL (     107 calls)
     cdiaghg      :      9.10s CPU      5.27s WALL (     156 calls)
     cegterg:over :      2.66s CPU      1.65s WALL (     107 calls)
     cegterg:upda :      1.62s CPU      0.60s WALL (     107 calls)
     cegterg:last :      0.26s CPU      0.27s WALL (      53 calls)
     cdiaghg:chol :      0.15s CPU      0.15s WALL (     156 calls)
     cdiaghg:inve :      0.10s CPU      0.10s WALL (     156 calls)
     cdiaghg:para :      1.13s CPU      0.11s WALL (     312 calls)

     Called by h_psi:
     h_psi:pot    :     68.99s CPU     32.96s WALL (     157 calls)
     h_psi:calbec :      0.46s CPU      0.13s WALL (     157 calls)
     vloc_psi     :     68.48s CPU     32.79s WALL (     157 calls)
     add_vuspsi   :      0.04s CPU      0.04s WALL (     157 calls)

     General routines
     calbec       :      0.51s CPU      0.18s WALL (     210 calls)
     fft          :    271.69s CPU    136.30s WALL (    3357 calls)
     ffts         :      1.71s CPU      0.70s WALL (      99 calls)
     fftw         :     72.19s CPU     35.63s WALL (   11032 calls)
     interpolate  :      9.76s CPU      4.67s WALL (      99 calls)
 
     Parallel routines
     fft_scatter  :    211.08s CPU    109.90s WALL (   14488 calls)

     PAW routines
     PAW_pot      :      3.92s CPU      1.89s WALL (      50 calls)
     PAW_symme    :      0.01s CPU      0.01s WALL (      99 calls)
 
     PWSCF        : 12m 7.00s CPU     6m15.33s WALL

 
   This run was terminated on:  14:17:25   9Feb2026            

=------------------------------------------------------------------------------=
   JOB DONE.
=------------------------------------------------------------------------------=
