
     Program PWSCF v.6.1 starts on 11Feb2026 at  3:40:44 

     This program is part of the open-source Quantum ESPRESSO suite
     for quantum simulation of materials; please cite
         "P. Giannozzi et al., J. Phys.:Condens. Matter 21 395502 (2009);
          URL http://www.quantum-espresso.org", 
     in publications or presentations arising from this work. More details at
     http://www.quantum-espresso.org/quote

     Parallel version (MPI & OpenMP), running on     480 processor cores
     Number of MPI processes:               240
     Threads/MPI process:                     2
     R & G space division:  proc/nbgrp/npool/nimage =     240
     Reading input from espresso.pwi

     Current dimensions of program PWSCF are:
     Max number of different atomic species (ntypx) = 10
     Max number of k-points (npk) =  40000
     Max angular momentum in pseudopotentials (lmaxx) =  3

     IMPORTANT: XC functional enforced from input :
     Exchange-correlation      = VDW-DF2 ( 1  4 13  0 2 0)
     Any further DFT definition will be discarded
     Please, verify this is what you really want

               file Cu.pbe-dn-kjpaw_psl.1.0.0.UPF: wavefunction(s)  4S 3D renormalized
               file C.pbe-n-kjpaw_psl.1.0.0.UPF: wavefunction(s)  2S 2P renormalized
               file O.pbe-n-kjpaw_psl.1.0.0.UPF: wavefunction(s)  2S 2P renormalized
     Message from routine iosys_1drism:
     default density from MOL file(H2O.tip5p.MOL) is used

     Subspace diagonalization in iterative solution of the eigenvalue problem:
     one sub-group per band group will be used
     ELPA distributed-memory algorithm (size of sub-group: 10* 10 procs)


     Molecule # 1 for H2O read from file:
     /work/gf93/f93007/QE/pseudo/H2O.tip5p.MOL
     Density:
         0.72794769E+02 cell^-1
         0.49533750E-02 bohr^-3
         0.55506881E+02 mol/L
         0.99997200E+00 g/cm^3
     Permittivity:
        78.355300
     Number of atoms:   5
     Atoms:
       #  atom      X (angs)      Y (angs)      Z (angs)      Q (e)         E (kcal/mol)  S (angs)
       1  O/h2o     0.00000000    0.00000000    0.00000000    0.00000000    0.16000000    3.12000000
       2  H/h2o     0.75695000    0.58588000    0.00000000    0.24100000    0.04600000    1.00000000
       3  H/h2o    -0.75695000    0.58588000    0.00000000    0.24100000    0.04600000    1.00000000
       4  L/h2o     0.00000000   -0.40415000    0.57154000   -0.24100000    0.04600000    1.80000000
       5  L/h2o     0.00000000   -0.40415000   -0.57154000   -0.24100000    0.04600000    1.80000000


     Molecule # 2 for K+ read from file:
     /work/gf93/f93007/QE/pseudo/K+.oplsaa.MOL
     Density:
         0.13114549E+01 cell^-1
         0.89238936E-04 bohr^-3
         0.10000000E+01 mol/L
         0.39098300E-01 g/cm^3
     Number of atoms:   1
     Atoms:
       #  atom      X (angs)      Y (angs)      Z (angs)      Q (e)         E (kcal/mol)  S (angs)
       1  K         0.00000000    0.00000000    0.00000000    1.00000000    0.00032800    4.93462800


     Molecule # 3 for OH- read from file:
     /work/gf93/f93007/QE/pseudo/OH-.oplsaa.MOL
     Density:
         0.13114549E+01 cell^-1
         0.89238936E-04 bohr^-3
         0.10000000E+01 mol/L
         0.17007340E-01 g/cm^3
     Number of atoms:   2
     Atoms:
       #  atom      X (angs)      Y (angs)      Z (angs)      Q (e)         E (kcal/mol)  S (angs)
       1  O/oh      0.00000000    0.00000000    0.00000000   -1.30000000    0.25000000    3.20000000
       2  H/oh      0.95300000    0.00000000    0.00000000    0.30000000    0.04600000    1.00000000


     Number of total sites:   8
     Index site -> solvent: 
       1  1  1  1  1  2  3  3
     Index site -> atom (in a solvent): 
       1  2  3  4  5  1  1  2


     Number of unique sites:   6
     Multiplicity of unique site: 
       1  2  2  1  1  1
     Index unique site -> site: 
       1:  1
       2:  2  3
       3:  4  5
       4:  6
       5:  7
       6:  8


     1D-RISM info
     ------------
     closure equation        =           KH
     temperature             =     300.0000  kelvin
     coulomb smearing radius =       2.0000  bohr
     number of solvent sites =            8
     nv * (nv + 1) / 2       =           36
     number of grids         =         8345
     maximum of R-space      =     999.8802  bohr
     maximum of G-space      =      26.2150  bohr^-1
     #R-grids in local       =           66
     #G-grids in local       =           66
     number of iterations    =       100000
     convergence threshold   =      1.0E-08
     Gaussian width of bonds =       0.2530  bohr
     size of MDIIS           =           20
     step of MDIIS           =       0.1000
     number of processes     =          128


     Radial FFT:
     number of radial grids   =         8345
     number of FFT grids      =        16689
     good number of FFT grids =           -1
     R-space grids:
       0.00000000E+00  0.11983223E+00  0.23966447E+00  0.35949670E+00  0.47932894E+00
       0.59916117E+00  0.71899341E+00  0.83882564E+00  0.95865788E+00  0.10784901E+01
       ..............  ..............  ..............  ..............  ..............
       0.99880168E+03  0.99892151E+03  0.99904134E+03  0.99916117E+03  0.99928101E+03
       0.99940084E+03  0.99952067E+03  0.99964050E+03  0.99976034E+03  0.99988017E+03
     G-space grids:
       0.00000000E+00  0.31417809E-02  0.62835618E-02  0.94253427E-02  0.12567124E-01
       0.15708904E-01  0.18850685E-01  0.21992466E-01  0.25134247E-01  0.28276028E-01
       ..............  ..............  ..............  ..............  ..............
       0.26186744E+02  0.26189886E+02  0.26193027E+02  0.26196169E+02  0.26199311E+02
       0.26202453E+02  0.26205594E+02  0.26208736E+02  0.26211878E+02  0.26215020E+02


     MPI for site:
     number of site groups     =          128
     #procs in a site group    =            1
     this proc in a site group =            0
     the root in a site group  =            0
     this site group           =            0
     inter-site group comm.    =           20
     intra-site group comm.    =            2
     total number of sites     =           36
     starting index of sites   =            1
     ending index of sites     =            1


     MPI for task:
     #procs in a task group    =          128
     this proc in a task group =            0
     the root in a task group  =            0
     task group comm.          =           20
     total number of vectors   =         8345
     starting index of vectors =            1
     ending index of vectors   =           66
     lengths of vectors        = 
        66   66   66   66   66   66   66   66   66   66
        66   66   66   66   66   66   66   66   66   66
        66   66   66   66   66   65   65   65   65   65
        65   65   65   65   65   65   65   65   65   65
        65   65   65   65   65   65   65   65   65   65
        65   65   65   65   65   65   65   65   65   65
        65   65   65   65   65   65   65   65   65   65
        65   65   65   65   65   65   65   65   65   65
        65   65   65   65   65   65   65   65   65   65
        65   65   65   65   65   65   65   65   65   65
        65   65   65   65   65   65   65   65   65   65
        65   65   65   65   65   65   65   65   65   65
        65   65   65   65   65   65   65   65
     displacement of vectors   = 
         0   66  132  198  264  330  396  462  528  594
       660  726  792  858  924  990 1056 1122 1188 1254
      1320 1386 1452 1518 1584 1650 1715 1780 1845 1910
      1975 2040 2105 2170 2235 2300 2365 2430 2495 2560
      2625 2690 2755 2820 2885 2950 3015 3080 3145 3210
      3275 3340 3405 3470 3535 3600 3665 3730 3795 3860
      3925 3990 4055 4120 4185 4250 4315 4380 4445 4510
      4575 4640 4705 4770 4835 4900 4965 5030 5095 5160
      5225 5290 5355 5420 5485 5550 5615 5680 5745 5810
      5875 5940 6005 6070 6135 6200 6265 6330 6395 6460
      6525 6590 6655 6720 6785 6850 6915 6980 7045 7110
      7175 7240 7305 7370 7435 7500 7565 7630 7695 7760
      7825 7890 7955 8020 8085 8150 8215 8280


     Correlation function is read from file


     1D-RISM Calculation

     iter. #     1  RMS(g-h-1)= 9.995E-09  nbox=  0  T=  300.00K

     End of 1D-RISM calculation


     convergence has been achieved in     1 iterations


     Chemical potential of solvation

     H2O        H2O        Closure      0.106068E+01 kcal/mol
                           GaussFluct  -0.737993E+01 kcal/mol

                K+         Closure     -0.288345E+00 kcal/mol
                           GaussFluct  -0.358438E+00 kcal/mol

                OH-        Closure     -0.764259E+00 kcal/mol
                           GaussFluct  -0.855991E+00 kcal/mol

                Total      Closure      0.808077E-02 kcal/mol
                           GaussFluct  -0.859435E+01 kcal/mol

     K+         H2O        Closure     -0.160051E+02 kcal/mol
                           GaussFluct  -0.198958E+02 kcal/mol

                K+         Closure      0.351561E+06 kcal/mol
                           GaussFluct   0.351561E+06 kcal/mol

                OH-        Closure     -0.351612E+06 kcal/mol
                           GaussFluct  -0.351612E+06 kcal/mol

                Total      Closure     -0.668098E+02 kcal/mol
                           GaussFluct  -0.707592E+02 kcal/mol

     OH-        H2O        Closure     -0.424217E+02 kcal/mol
                           GaussFluct  -0.475134E+02 kcal/mol

                K+         Closure     -0.351612E+06 kcal/mol
                           GaussFluct  -0.351612E+06 kcal/mol

                OH-        Closure      0.351561E+06 kcal/mol
                           GaussFluct   0.351561E+06 kcal/mol

                Total      Closure     -0.934347E+02 kcal/mol
                           GaussFluct  -0.986502E+02 kcal/mol

 
     Parallelization info
     --------------------
     sticks:   dense  smooth     PW     G-vecs:    dense   smooth      PW
     Min          40      16      4                16136     4064     568
     Max          41      17      5                16171     4100     615
     Sum        9661    3865   1057              3875677   980529  140539
 

     Title: 
     Cu-vib                                                                     


     bravais-lattice index     =            0
     lattice parameter (alat)  =      14.9832  a.u.
     unit-cell volume          =   14695.9939 (a.u.)^3
     number of atoms/cell      =           38
     number of atomic types    =            3
     number of electrons       =       406.00
     number of Kohn-Sham states=          244
     kinetic-energy cutoff     =      62.4738  Ry
     charge density cutoff     =     624.7385  Ry
     convergence threshold     =      7.3E-12
     mixing beta               =       0.3333
     number of iterations used =           12  plain     mixing
     Exchange-correlation      = VDW-DF2 ( 1  4 13  0 2 0)

     Effective Screening Medium Method
     =================================
     Boundary Conditions: Vacuum-Slab-Vacuum
     total charge in unit cell        =   0.0000
     grid points for fit at edges     =        4 
 

     celldm(1)=  14.983209  celldm(2)=   0.000000  celldm(3)=   0.000000
     celldm(4)=   0.000000  celldm(5)=   0.000000  celldm(6)=   0.000000

     crystal axes: (cart. coord. in units of alat)
               a(1) = (   1.000000   0.000000   0.000000 )  
               a(2) = (   0.500000   0.866025   0.000000 )  
               a(3) = (   0.000000   0.000000   5.044917 )  

     reciprocal axes: (cart. coord. in units 2 pi/alat)
               b(1) = (  1.000000 -0.577351  0.000000 )  
               b(2) = (  0.000000  1.154701  0.000000 )  
               b(3) = (  0.000000  0.000000  0.198219 )  


     PseudoPot. # 1 for Cu read from file:
     /work/gf93/f93007/QE/pseudo/Cu.pbe-dn-kjpaw_psl.1.0.0.UPF
     MD5 check sum: 67c40f9e1593dc2d139023e70404cc2a
     Pseudo is Projector augmented-wave + core cor, Zval = 11.0
     Generated using "atomic" code by A. Dal Corso  v.6.1 svn rev. 13369
     Shape of augmentation charge: PSQ
     Using radial grid of 1199 points,  6 beta functions with: 
                l(1) =   0
                l(2) =   0
                l(3) =   1
                l(4) =   1
                l(5) =   2
                l(6) =   2
     Q(r) pseudized with 0 coefficients 


     PseudoPot. # 2 for  C read from file:
     /work/gf93/f93007/QE/pseudo/C.pbe-n-kjpaw_psl.1.0.0.UPF
     MD5 check sum: 92a742b3ac0ce1af44b5aa3f9352ca21
     Pseudo is Projector augmented-wave + core cor, Zval =  4.0
     Generated using "atomic" code by A. Dal Corso  v.6.1 svn rev. 13369
     Shape of augmentation charge: PSQ
     Using radial grid of 1073 points,  4 beta functions with: 
                l(1) =   0
                l(2) =   0
                l(3) =   1
                l(4) =   1
     Q(r) pseudized with 0 coefficients 


     PseudoPot. # 3 for  O read from file:
     /work/gf93/f93007/QE/pseudo/O.pbe-n-kjpaw_psl.1.0.0.UPF
     MD5 check sum: c61d840054b6bba219e553541e327118
     Pseudo is Projector augmented-wave + core cor, Zval =  6.0
     Generated using "atomic" code by A. Dal Corso  v.6.1 svn rev. 13369
     Shape of augmentation charge: PSQ
     Using radial grid of 1095 points,  4 beta functions with: 
                l(1) =   0
                l(2) =   0
                l(3) =   1
                l(4) =   1
     Q(r) pseudized with 0 coefficients 


     vdW kernel table read from file vdW_kernel_table
     MD5 check sum: 6d69797d2e858e93e031fb7d16d30e50

     atomic species   valence    mass     pseudopotential
        Cu            11.00    63.54600     Cu( 1.00)
        C              4.00    12.01100      C( 1.00)
        O              6.00    15.99900      O( 1.00)

     No symmetry found


                                    s                        frac. trans.

      isym =  1     identity                                     

 cryst.   s( 1) = (     1          0          0      )
                  (     0          1          0      )
                  (     0          0          1      )

 cart.    s( 1) = (  1.0000000  0.0000000  0.0000000 )
                  (  0.0000000  1.0000000  0.0000000 )
                  (  0.0000000  0.0000000  1.0000000 )


   Cartesian axes

     site n.     atom                  positions (alat units)
         1           Cu  tau(   1) = (   0.0000000   0.0000000  -0.8248888  )
         2           Cu  tau(   2) = (   0.3333333   0.0000000  -0.8248888  )
         3           Cu  tau(   3) = (   0.6666667   0.0000000  -0.8248888  )
         4           Cu  tau(   4) = (   0.1666667   0.2886751  -0.8248888  )
         5           Cu  tau(   5) = (   0.5000000   0.2886751  -0.8248888  )
         6           Cu  tau(   6) = (   0.8333333   0.2886751  -0.8248888  )
         7           Cu  tau(   7) = (   0.3333333   0.5773503  -0.8248888  )
         8           Cu  tau(   8) = (   0.6666667   0.5773503  -0.8248888  )
         9           Cu  tau(   9) = (   1.0000000   0.5773503  -0.8248888  )
        10           Cu  tau(  10) = (   0.1679527   0.0969677  -0.5550278  )
        11           Cu  tau(  11) = (   0.5000001   0.0963555  -0.5546924  )
        12           Cu  tau(  12) = (   0.8320475   0.0969677  -0.5550278  )
        13           Cu  tau(  13) = (   0.3334463   0.3848350  -0.5546924  )
        14           Cu  tau(  14) = (   0.6665540   0.3848351  -0.5546924  )
        15           Cu  tau(  15) = (   1.0000000   0.3851225  -0.5554971  )
        16           Cu  tau(  16) = (   0.5000002   0.6720902  -0.5550277  )
        17           Cu  tau(  17) = (   0.8335259   0.6734639  -0.5554970  )
        18           Cu  tau(  18) = (   1.1664742   0.6734639  -0.5554970  )
        19           Cu  tau(  19) = (   0.0000002   0.1919045  -0.2895402  )
        20           Cu  tau(  20) = (   0.3359748   0.1939752  -0.2811846  )
        21           Cu  tau(  21) = (   0.6640256   0.1939752  -0.2811846  )
        22           Cu  tau(  22) = (   0.1667941   0.4810516  -0.2872685  )
        23           Cu  tau(  23) = (   0.5000002   0.4780753  -0.2811846  )
        24           Cu  tau(  24) = (   0.8332061   0.4810517  -0.2872684  )
        25           Cu  tau(  25) = (   0.3338062   0.7700731  -0.2895404  )
        26           Cu  tau(  26) = (   0.6661942   0.7700731  -0.2895403  )
        27           Cu  tau(  27) = (   1.0000001   0.7699472  -0.2872685  )
        28           Cu  tau(  28) = (   0.0000000   0.0000002  -0.0207473  )
        29           Cu  tau(  29) = (   0.3317716  -0.0034666  -0.0198287  )
        30           Cu  tau(  30) = (   0.6682285  -0.0034665  -0.0198288  )
        31           Cu  tau(  31) = (   0.1628835   0.2890560  -0.0198289  )
        32           Cu  tau(  32) = (   0.5000001   0.2886752   0.0000000  )
        33           Cu  tau(  33) = (   0.8371164   0.2890560  -0.0198289  )
        34           Cu  tau(  34) = (   0.3311120   0.5804359  -0.0198289  )
        35           Cu  tau(  35) = (   0.6688881   0.5804359  -0.0198288  )
        36           Cu  tau(  36) = (   1.0000000   0.5773501  -0.0191733  )
        37           C   tau(  37) = (   0.4999994   0.2886747   0.2409761  )
        38           O   tau(  38) = (   0.4999989   0.2886744   0.3848034  )

   Crystallographic axes

     site n.     atom                  positions (cryst. coord.)
         1           Cu  tau(   1) = (  0.0000000  0.0000000 -0.1635089  )
         2           Cu  tau(   2) = (  0.3333333  0.0000000 -0.1635089  )
         3           Cu  tau(   3) = (  0.6666667  0.0000000 -0.1635089  )
         4           Cu  tau(   4) = ( -0.0000001  0.3333335 -0.1635089  )
         5           Cu  tau(   5) = (  0.3333333  0.3333335 -0.1635089  )
         6           Cu  tau(   6) = (  0.6666666  0.3333335 -0.1635089  )
         7           Cu  tau(   7) = ( -0.0000002  0.6666670 -0.1635089  )
         8           Cu  tau(   8) = (  0.3333332  0.6666670 -0.1635089  )
         9           Cu  tau(   9) = (  0.6666665  0.6666670 -0.1635089  )
        10           Cu  tau(  10) = (  0.1119684  0.1119687 -0.1100172  )
        11           Cu  tau(  11) = (  0.4443691  0.1112618 -0.1099508  )
        12           Cu  tau(  12) = (  0.7760631  0.1119687 -0.1100172  )
        13           Cu  tau(  13) = (  0.1112615  0.4443694 -0.1099508  )
        14           Cu  tau(  14) = (  0.4443692  0.4443695 -0.1099507  )
        15           Cu  tau(  15) = (  0.7776494  0.4447013 -0.1101102  )
        16           Cu  tau(  16) = (  0.1119685  0.7760633 -0.1100172  )
        17           Cu  tau(  17) = (  0.4447012  0.7776495 -0.1101102  )
        18           Cu  tau(  18) = (  0.7776494  0.7776495 -0.1101102  )
        19           Cu  tau(  19) = ( -0.1107960  0.2215923 -0.0573925  )
        20           Cu  tau(  20) = (  0.2239831  0.2239834 -0.0557362  )
        21           Cu  tau(  21) = (  0.5520338  0.2239834 -0.0557362  )
        22           Cu  tau(  22) = ( -0.1109413  0.5554709 -0.0569422  )
        23           Cu  tau(  23) = (  0.2239831  0.5520341 -0.0557362  )
        24           Cu  tau(  24) = (  0.5554707  0.5554709 -0.0569421  )
        25           Cu  tau(  25) = ( -0.1107959  0.8892042 -0.0573925  )
        26           Cu  tau(  26) = (  0.2215921  0.8892042 -0.0573925  )
        27           Cu  tau(  27) = (  0.5554707  0.8890589 -0.0569422  )
        28           Cu  tau(  28) = ( -0.0000001  0.0000002 -0.0041125  )
        29           Cu  tau(  29) = (  0.3337730 -0.0040029 -0.0039304  )
        30           Cu  tau(  30) = (  0.6702299 -0.0040028 -0.0039305  )
        31           Cu  tau(  31) = ( -0.0040031  0.3337733 -0.0039305  )
        32           Cu  tau(  32) = (  0.3333333  0.3333336  0.0000000  )
        33           Cu  tau(  33) = (  0.6702298  0.3337733 -0.0039305  )
        34           Cu  tau(  34) = ( -0.0040030  0.6702300 -0.0039305  )
        35           Cu  tau(  35) = (  0.3337731  0.6702300 -0.0039305  )
        36           Cu  tau(  36) = (  0.6666666  0.6666667 -0.0038005  )
        37           C   tau(  37) = (  0.3333329  0.3333330  0.0477661  )
        38           O   tau(  38) = (  0.3333326  0.3333326  0.0762755  )

     number of k points=    34  Marzari-Vanderbilt smearing, width (Ry)=  0.0073
                       cart. coord. in units 2pi/alat
        k(    1) = (   0.0000000   0.0000000   0.0000000), wk =   0.0312500
        k(    2) = (   0.0000000   0.1443376   0.0000000), wk =   0.0625000
        k(    3) = (   0.0000000   0.2886753   0.0000000), wk =   0.0625000
        k(    4) = (   0.0000000   0.4330129   0.0000000), wk =   0.0625000
        k(    5) = (   0.0000000  -0.5773505   0.0000000), wk =   0.0312500
        k(    6) = (   0.1250000  -0.0721688   0.0000000), wk =   0.0625000
        k(    7) = (   0.1250000   0.0721688   0.0000000), wk =   0.0625000
        k(    8) = (   0.1250000   0.2165065   0.0000000), wk =   0.0625000
        k(    9) = (   0.1250000   0.3608441   0.0000000), wk =   0.0625000
        k(   10) = (   0.1250000  -0.6495194   0.0000000), wk =   0.0625000
        k(   11) = (   0.1250000  -0.5051817   0.0000000), wk =   0.0625000
        k(   12) = (   0.1250000  -0.3608441   0.0000000), wk =   0.0625000
        k(   13) = (   0.1250000  -0.2165065   0.0000000), wk =   0.0625000
        k(   14) = (   0.2500000  -0.1443376   0.0000000), wk =   0.0625000
        k(   15) = (   0.2500000   0.0000000   0.0000000), wk =   0.0625000
        k(   16) = (   0.2500000   0.1443376   0.0000000), wk =   0.0625000
        k(   17) = (   0.2500000   0.2886753   0.0000000), wk =   0.0625000
        k(   18) = (   0.2500000  -0.7216882   0.0000000), wk =   0.0625000
        k(   19) = (   0.2500000  -0.5773505   0.0000000), wk =   0.0625000
        k(   20) = (   0.2500000  -0.4330129   0.0000000), wk =   0.0625000
        k(   21) = (   0.2500000  -0.2886753   0.0000000), wk =   0.0625000
        k(   22) = (   0.3750000  -0.2165065   0.0000000), wk =   0.0625000
        k(   23) = (   0.3750000  -0.0721688   0.0000000), wk =   0.0625000
        k(   24) = (   0.3750000   0.0721688   0.0000000), wk =   0.0625000
        k(   25) = (   0.3750000   0.2165065   0.0000000), wk =   0.0625000
        k(   26) = (   0.3750000  -0.7938570   0.0000000), wk =   0.0625000
        k(   27) = (   0.3750000  -0.6495194   0.0000000), wk =   0.0625000
        k(   28) = (   0.3750000  -0.5051817   0.0000000), wk =   0.0625000
        k(   29) = (   0.3750000  -0.3608441   0.0000000), wk =   0.0625000
        k(   30) = (  -0.5000000   0.2886753   0.0000000), wk =   0.0312500
        k(   31) = (  -0.5000000   0.4330129   0.0000000), wk =   0.0625000
        k(   32) = (  -0.5000000   0.5773505   0.0000000), wk =   0.0625000
        k(   33) = (  -0.5000000   0.7216882   0.0000000), wk =   0.0625000
        k(   34) = (  -0.5000000  -0.2886753   0.0000000), wk =   0.0312500

                       cryst. coord.
        k(    1) = (   0.0000000   0.0000000   0.0000000), wk =   0.0312500
        k(    2) = (   0.0000000   0.1250000   0.0000000), wk =   0.0625000
        k(    3) = (   0.0000000   0.2500000   0.0000000), wk =   0.0625000
        k(    4) = (   0.0000000   0.3750000   0.0000000), wk =   0.0625000
        k(    5) = (   0.0000000  -0.5000000   0.0000000), wk =   0.0312500
        k(    6) = (   0.1250000   0.0000000   0.0000000), wk =   0.0625000
        k(    7) = (   0.1250000   0.1250000   0.0000000), wk =   0.0625000
        k(    8) = (   0.1250000   0.2500000   0.0000000), wk =   0.0625000
        k(    9) = (   0.1250000   0.3750000   0.0000000), wk =   0.0625000
        k(   10) = (   0.1250000  -0.5000000   0.0000000), wk =   0.0625000
        k(   11) = (   0.1250000  -0.3750000   0.0000000), wk =   0.0625000
        k(   12) = (   0.1250000  -0.2500000   0.0000000), wk =   0.0625000
        k(   13) = (   0.1250000  -0.1250000   0.0000000), wk =   0.0625000
        k(   14) = (   0.2500000   0.0000000   0.0000000), wk =   0.0625000
        k(   15) = (   0.2500000   0.1250000   0.0000000), wk =   0.0625000
        k(   16) = (   0.2500000   0.2500000   0.0000000), wk =   0.0625000
        k(   17) = (   0.2500000   0.3750000   0.0000000), wk =   0.0625000
        k(   18) = (   0.2500000  -0.5000000   0.0000000), wk =   0.0625000
        k(   19) = (   0.2500000  -0.3750000   0.0000000), wk =   0.0625000
        k(   20) = (   0.2500000  -0.2500000   0.0000000), wk =   0.0625000
        k(   21) = (   0.2500000  -0.1250000   0.0000000), wk =   0.0625000
        k(   22) = (   0.3750000   0.0000000   0.0000000), wk =   0.0625000
        k(   23) = (   0.3750000   0.1250000   0.0000000), wk =   0.0625000
        k(   24) = (   0.3750000   0.2500000   0.0000000), wk =   0.0625000
        k(   25) = (   0.3750000   0.3750000   0.0000000), wk =   0.0625000
        k(   26) = (   0.3750000  -0.5000000   0.0000000), wk =   0.0625000
        k(   27) = (   0.3750000  -0.3750000   0.0000000), wk =   0.0625000
        k(   28) = (   0.3750000  -0.2500000   0.0000000), wk =   0.0625000
        k(   29) = (   0.3750000  -0.1250000   0.0000000), wk =   0.0625000
        k(   30) = (  -0.5000000   0.0000000   0.0000000), wk =   0.0312500
        k(   31) = (  -0.5000000   0.1250000   0.0000000), wk =   0.0625000
        k(   32) = (  -0.5000000   0.2500000   0.0000000), wk =   0.0625000
        k(   33) = (  -0.5000000   0.3750000   0.0000000), wk =   0.0625000
        k(   34) = (  -0.5000000  -0.5000000   0.0000000), wk =   0.0312500

     Dense  grid:  3875677 G-vectors     FFT dimensions: ( 120, 120, 625)

     Smooth grid:   980529 G-vectors     FFT dimensions: (  75,  75, 384)

     Estimated max dynamical RAM per process >     140.99MB

     Estimated total allocated dynamical RAM >   33838.49MB

     Solute:
       # atom     E (kcal/mol)  S (angs)
       1  Cu      1.00000000    3.00000000    given
       2  Cu      1.00000000    3.00000000    given
       3  Cu      1.00000000    3.00000000    given
       4  Cu      1.00000000    3.00000000    given
       5  Cu      1.00000000    3.00000000    given
       6  Cu      1.00000000    3.00000000    given
       7  Cu      1.00000000    3.00000000    given
       8  Cu      1.00000000    3.00000000    given
       9  Cu      1.00000000    3.00000000    given
      10  Cu      1.00000000    3.00000000    given
      11  Cu      1.00000000    3.00000000    given
      12  Cu      1.00000000    3.00000000    given
      13  Cu      1.00000000    3.00000000    given
      14  Cu      1.00000000    3.00000000    given
      15  Cu      1.00000000    3.00000000    given
      16  Cu      1.00000000    3.00000000    given
      17  Cu      1.00000000    3.00000000    given
      18  Cu      1.00000000    3.00000000    given
      19  Cu      1.00000000    3.00000000    given
      20  Cu      1.00000000    3.00000000    given
      21  Cu      1.00000000    3.00000000    given
      22  Cu      1.00000000    3.00000000    given
      23  Cu      1.00000000    3.00000000    given
      24  Cu      1.00000000    3.00000000    given
      25  Cu      1.00000000    3.00000000    given
      26  Cu      1.00000000    3.00000000    given
      27  Cu      1.00000000    3.00000000    given
      28  Cu      1.00000000    3.00000000    given
      29  Cu      1.00000000    3.00000000    given
      30  Cu      1.00000000    3.00000000    given
      31  Cu      1.00000000    3.00000000    given
      32  Cu      1.00000000    3.00000000    given
      33  Cu      1.00000000    3.00000000    given
      34  Cu      1.00000000    3.00000000    given
      35  Cu      1.00000000    3.00000000    given
      36  Cu      1.00000000    3.00000000    given
      37  C       0.07000000    3.55000000    OPLS-AA
      38  O       0.17000000    3.00000000    OPLS-AA

     Wall:
       Density =    0.01000000  bohr^-3
       E       =    0.10000000  kcal/mol
       S       =    4.00000000  angs

     L.J. cutoff radius =       5.0000  S


     Laue-RISM info
     --------------
     closure equation        =           KH
     temperature             =     300.0000  kelvin
     coulomb smearing radius =       2.0000  bohr
     number of solvent sites =            6
     solvent sites           =    O/h2o   H/h2o   L/h2o       K
     solvent sites           =     O/oh    H/oh
     #R-grids in local       =        11250
     #Rz-grids (unit-cell)   =          384
     #Rz-grids (expand-cell) =          720
     #G-grids in local       =         4081
     #Gxy-grids in local     =           17
     #Gxy-shells in local    =           17
     number of iterations    =        10000
     convergence threshold   =      1.0E-06
     convergence level       =       0.8000
     size of MDIIS           =           20
     step of MDIIS           =       0.8000
     solvent cutoff          =     249.8954  Ry
     Custom grid:   980529 G-vectors     FFT dimensions: (  75,  75, 384)

     Boundary Conditions        : Vacuum-Slab-Solvent
     unit-cell (in bohr)        : [ -37.794523  37.794523]
     expand-cell (in bohr)      : [ -37.794523 103.934937]
     solvent of right (in bohr) : [  -8.267552 103.934937]
     buffer  of right (in bohr) : [ -18.109875  -8.267552]
     Gxy = 0 of right (in bohr) : [ -18.109875  82.872365]
     repulsive wall (in bohr)   : [  -Infinity -10.486273]
     reference of potential     : right-hand side
     #grids to fit at edges of unit-cell =    4
     Laue grid:     3865 Gxy-vectors     FFT dimensions: (  75,  75, 720)


     MPI for site:
     number of site groups     =            1
     #procs in a site group    =          240
     this proc in a site group =            0
     the root in a site group  =            0
     this site group           =            0
     inter-site group comm.    =           23
     intra-site group comm.    =            5
     total number of sites     =            6
     starting index of sites   =            1
     ending index of sites     =            6


     MPI for task:
     #procs in a task group    =          240
     this proc in a task group =            0
     the root in a task group  =            0
     task group comm.          =            5


     Initial potential from superposition of free atoms
     Check: negative starting charge=   -0.001648

     starting charge  405.99177, renormalised to  406.00000

     Correlation function is read from file


     negative rho (up, down):  1.648E-03 0.000E+00


     %%%%%%%%%%%%%%%%%%%%%%%%%%%%%%%%%%%%%%%%%%%%%%%%%%%%%%%%%%%%%%%%%%%%%%%%
     %                                                                      %
     % You are using vdW-DF, which was implemented by the Thonhauser group. %
     % Please cite the following two papers that made this development      %
     % possible and the two reviews that describe the various versions:     %
     %                                                                      %
     %   T. Thonhauser et al., PRL 115, 136402 (2015).                      %
     %   T. Thonhauser et al., PRB 76, 125112 (2007).                       %
     %   K. Berland et al., Rep. Prog. Phys. 78, 066501 (2015).             %
     %   D.C. Langreth et al., J. Phys.: Condens. Matter 21, 084203 (2009). %
     %                                                                      %
     %                                                                      %
     % If you are calculating the stress with vdW-DF, please also cite:     %
     %                                                                      %
     %   R. Sabatini et al., J. Phys.: Condens. Matter 24, 424209 (2012).   %
     %                                                                      %
     %%%%%%%%%%%%%%%%%%%%%%%%%%%%%%%%%%%%%%%%%%%%%%%%%%%%%%%%%%%%%%%%%%%%%%%%


     Carrying out vdW-DF run using the following parameters:
     Nqs    =  20  Npoints =  1024  r_max =  100.000
     q_mesh =  0.00001000  0.04494208  0.09755937  0.15916263
               0.23128650  0.31572767  0.41458969  0.53033537
               0.66584808  0.82450364  1.01025438  1.22772762
               1.48234092  1.78043706  2.12944203  2.53805004
               3.01644009  3.57652955  4.23227104  5.00000000


     -----------------------------------------------
     Non-local corr. energy    =      22.28454907 Ry
     -----------------------------------------------


     Laue-RISM Calculation

     convergence threshold    = 6.310E-06
     iter. #     1  RMS(g-h-1)= 6.050E-02  nbox=  0
     iter. #     2  RMS(g-h-1)= 4.654E-02  nbox=  1
     iter. #     3  RMS(g-h-1)= 2.871E-02  nbox=  2
     iter. #     4  RMS(g-h-1)= 1.255E-02  nbox=  3
     iter. #     5  RMS(g-h-1)= 1.062E-02  nbox=  4
     iter. #     6  RMS(g-h-1)= 9.007E-03  nbox=  5
     iter. #     7  RMS(g-h-1)= 7.597E-03  nbox=  6
     iter. #     8  RMS(g-h-1)= 6.638E-03  nbox=  7
     iter. #     9  RMS(g-h-1)= 6.074E-03  nbox=  8
     iter. #    10  RMS(g-h-1)= 5.685E-03  nbox=  9
     iter. #    11  RMS(g-h-1)= 5.295E-03  nbox= 10
     iter. #    12  RMS(g-h-1)= 4.965E-03  nbox= 11
     iter. #    13  RMS(g-h-1)= 4.755E-03  nbox= 12
     iter. #    14  RMS(g-h-1)= 4.488E-03  nbox= 13
     iter. #    15  RMS(g-h-1)= 4.063E-03  nbox= 14
     iter. #    16  RMS(g-h-1)= 3.672E-03  nbox= 15
     iter. #    17  RMS(g-h-1)= 3.448E-03  nbox= 16
     iter. #    18  RMS(g-h-1)= 3.065E-03  nbox= 17
     iter. #    19  RMS(g-h-1)= 2.685E-03  nbox= 18
     iter. #    20  RMS(g-h-1)= 2.481E-03  nbox= 19
     iter. #    21  RMS(g-h-1)= 2.253E-03  nbox= 20
     iter. #    22  RMS(g-h-1)= 2.036E-03  nbox= 20
     iter. #    23  RMS(g-h-1)= 1.899E-03  nbox= 20
     iter. #    24  RMS(g-h-1)= 1.800E-03  nbox= 20
     iter. #    25  RMS(g-h-1)= 1.734E-03  nbox= 20
     iter. #    26  RMS(g-h-1)= 1.630E-03  nbox= 20
     iter. #    27  RMS(g-h-1)= 1.569E-03  nbox= 20
     iter. #    28  RMS(g-h-1)= 1.526E-03  nbox= 20
     iter. #    29  RMS(g-h-1)= 1.467E-03  nbox= 20
     iter. #    30  RMS(g-h-1)= 1.443E-03  nbox= 20
     iter. #    31  RMS(g-h-1)= 1.390E-03  nbox= 20
     iter. #    32  RMS(g-h-1)= 1.326E-03  nbox= 20
     iter. #    33  RMS(g-h-1)= 1.285E-03  nbox= 20
     iter. #    34  RMS(g-h-1)= 1.227E-03  nbox= 20
     iter. #    35  RMS(g-h-1)= 1.166E-03  nbox= 20
     iter. #    36  RMS(g-h-1)= 1.120E-03  nbox= 20
     iter. #    37  RMS(g-h-1)= 1.092E-03  nbox= 20
     iter. #    38  RMS(g-h-1)= 1.053E-03  nbox= 20
     iter. #    39  RMS(g-h-1)= 1.013E-03  nbox= 20
     iter. #    40  RMS(g-h-1)= 9.987E-04  nbox= 20
     iter. #    41  RMS(g-h-1)= 9.723E-04  nbox= 20
     iter. #    42  RMS(g-h-1)= 9.568E-04  nbox= 20
     iter. #    43  RMS(g-h-1)= 9.239E-04  nbox= 20
     iter. #    44  RMS(g-h-1)= 9.146E-04  nbox= 20
     iter. #    45  RMS(g-h-1)= 8.928E-04  nbox= 20
     iter. #    46  RMS(g-h-1)= 8.849E-04  nbox= 20
     iter. #    47  RMS(g-h-1)= 8.788E-04  nbox= 20
     iter. #    48  RMS(g-h-1)= 8.602E-04  nbox= 20
     iter. #    49  RMS(g-h-1)= 8.529E-04  nbox= 20
     iter. #    50  RMS(g-h-1)= 8.466E-04  nbox= 20
     iter. #    51  RMS(g-h-1)= 8.420E-04  nbox= 20
     iter. #    52  RMS(g-h-1)= 8.379E-04  nbox=  2
     iter. #    53  RMS(g-h-1)= 8.238E-04  nbox=  3
     iter. #    54  RMS(g-h-1)= 8.065E-04  nbox=  4
     iter. #    55  RMS(g-h-1)= 7.881E-04  nbox=  5
     iter. #    56  RMS(g-h-1)= 7.700E-04  nbox=  6
     iter. #    57  RMS(g-h-1)= 7.717E-04  nbox=  7
     iter. #    58  RMS(g-h-1)= 7.479E-04  nbox=  8
     iter. #    59  RMS(g-h-1)= 7.407E-04  nbox=  9
     iter. #    60  RMS(g-h-1)= 7.315E-04  nbox= 10
     iter. #    61  RMS(g-h-1)= 7.182E-04  nbox= 11
     iter. #    62  RMS(g-h-1)= 7.074E-04  nbox= 12
     iter. #    63  RMS(g-h-1)= 7.043E-04  nbox= 13
     iter. #    64  RMS(g-h-1)= 6.916E-04  nbox= 14
     iter. #    65  RMS(g-h-1)= 6.802E-04  nbox= 15
     iter. #    66  RMS(g-h-1)= 6.629E-04  nbox= 16
     iter. #    67  RMS(g-h-1)= 6.472E-04  nbox= 17
     iter. #    68  RMS(g-h-1)= 6.437E-04  nbox=  2
     iter. #    69  RMS(g-h-1)= 6.255E-04  nbox=  3
     iter. #    70  RMS(g-h-1)= 6.103E-04  nbox=  4
     iter. #    71  RMS(g-h-1)= 6.049E-04  nbox=  5
     iter. #    72  RMS(g-h-1)= 5.939E-04  nbox=  6
     iter. #    73  RMS(g-h-1)= 5.836E-04  nbox=  7
     iter. #    74  RMS(g-h-1)= 5.711E-04  nbox=  8
     iter. #    75  RMS(g-h-1)= 5.596E-04  nbox=  9
     iter. #    76  RMS(g-h-1)= 5.535E-04  nbox= 10
     iter. #    77  RMS(g-h-1)= 5.410E-04  nbox= 11
     iter. #    78  RMS(g-h-1)= 5.291E-04  nbox= 12
     iter. #    79  RMS(g-h-1)= 5.126E-04  nbox= 13
     iter. #    80  RMS(g-h-1)= 5.206E-04  nbox= 14
     iter. #    81  RMS(g-h-1)= 4.915E-04  nbox= 15
     iter. #    82  RMS(g-h-1)= 4.798E-04  nbox= 16
     iter. #    83  RMS(g-h-1)= 4.717E-04  nbox= 17
     iter. #    84  RMS(g-h-1)= 4.669E-04  nbox=  2
     iter. #    85  RMS(g-h-1)= 4.595E-04  nbox=  3
     iter. #    86  RMS(g-h-1)= 4.511E-04  nbox=  4
     iter. #    87  RMS(g-h-1)= 4.468E-04  nbox=  5
     iter. #    88  RMS(g-h-1)= 4.368E-04  nbox=  6
     iter. #    89  RMS(g-h-1)= 4.368E-04  nbox=  7
     iter. #    90  RMS(g-h-1)= 4.276E-04  nbox=  8
     iter. #    91  RMS(g-h-1)= 4.215E-04  nbox=  9
     iter. #    92  RMS(g-h-1)= 4.138E-04  nbox= 10
     iter. #    93  RMS(g-h-1)= 4.189E-04  nbox= 11
     iter. #    94  RMS(g-h-1)= 4.008E-04  nbox= 12
     iter. #    95  RMS(g-h-1)= 3.944E-04  nbox= 13
     iter. #    96  RMS(g-h-1)= 3.814E-04  nbox= 14
     iter. #    97  RMS(g-h-1)= 3.723E-04  nbox= 15
     iter. #    98  RMS(g-h-1)= 3.700E-04  nbox= 16
     iter. #    99  RMS(g-h-1)= 3.617E-04  nbox= 17
     iter. #   100  RMS(g-h-1)= 3.606E-04  nbox=  2
     iter. #   101  RMS(g-h-1)= 3.538E-04  nbox=  3
     iter. #   102  RMS(g-h-1)= 3.492E-04  nbox=  4
     iter. #   103  RMS(g-h-1)= 3.458E-04  nbox=  5
     iter. #   104  RMS(g-h-1)= 3.427E-04  nbox=  6
     iter. #   105  RMS(g-h-1)= 3.355E-04  nbox=  7
     iter. #   106  RMS(g-h-1)= 3.275E-04  nbox=  8
     iter. #   107  RMS(g-h-1)= 3.377E-04  nbox=  9
     iter. #   108  RMS(g-h-1)= 3.153E-04  nbox= 10
     iter. #   109  RMS(g-h-1)= 3.112E-04  nbox= 11
     iter. #   110  RMS(g-h-1)= 3.035E-04  nbox= 12
     iter. #   111  RMS(g-h-1)= 2.968E-04  nbox= 13
     iter. #   112  RMS(g-h-1)= 2.909E-04  nbox= 14
     iter. #   113  RMS(g-h-1)= 2.884E-04  nbox= 15
     iter. #   114  RMS(g-h-1)= 2.840E-04  nbox= 16
     iter. #   115  RMS(g-h-1)= 2.805E-04  nbox= 17
     iter. #   116  RMS(g-h-1)= 2.794E-04  nbox=  2
     iter. #   117  RMS(g-h-1)= 2.768E-04  nbox=  3
     iter. #   118  RMS(g-h-1)= 2.743E-04  nbox=  4
     iter. #   119  RMS(g-h-1)= 2.719E-04  nbox=  5
     iter. #   120  RMS(g-h-1)= 2.706E-04  nbox=  6
     iter. #   121  RMS(g-h-1)= 2.681E-04  nbox=  7
     iter. #   122  RMS(g-h-1)= 2.660E-04  nbox=  8
     iter. #   123  RMS(g-h-1)= 2.634E-04  nbox=  9
     iter. #   124  RMS(g-h-1)= 2.613E-04  nbox= 10
     iter. #   125  RMS(g-h-1)= 2.592E-04  nbox= 11
     iter. #   126  RMS(g-h-1)= 2.578E-04  nbox= 12
     iter. #   127  RMS(g-h-1)= 2.557E-04  nbox= 13
     iter. #   128  RMS(g-h-1)= 2.535E-04  nbox= 14
     iter. #   129  RMS(g-h-1)= 2.517E-04  nbox= 15
     iter. #   130  RMS(g-h-1)= 2.493E-04  nbox= 16
     iter. #   131  RMS(g-h-1)= 2.497E-04  nbox= 17
     iter. #   132  RMS(g-h-1)= 2.495E-04  nbox=  2
     iter. #   133  RMS(g-h-1)= 2.465E-04  nbox=  3
     iter. #   134  RMS(g-h-1)= 2.443E-04  nbox=  4
     iter. #   135  RMS(g-h-1)= 2.424E-04  nbox=  5
     iter. #   136  RMS(g-h-1)= 2.440E-04  nbox=  6
     iter. #   137  RMS(g-h-1)= 2.392E-04  nbox=  7
     iter. #   138  RMS(g-h-1)= 2.396E-04  nbox=  8
     iter. #   139  RMS(g-h-1)= 2.369E-04  nbox=  9
     iter. #   140  RMS(g-h-1)= 2.348E-04  nbox= 10
     iter. #   141  RMS(g-h-1)= 2.326E-04  nbox= 11
     iter. #   142  RMS(g-h-1)= 2.305E-04  nbox= 12
     iter. #   143  RMS(g-h-1)= 2.293E-04  nbox= 13
     iter. #   144  RMS(g-h-1)= 2.270E-04  nbox= 14
     iter. #   145  RMS(g-h-1)= 2.249E-04  nbox= 15
     iter. #   146  RMS(g-h-1)= 2.226E-04  nbox= 16
     iter. #   147  RMS(g-h-1)= 2.230E-04  nbox= 17
     iter. #   148  RMS(g-h-1)= 2.232E-04  nbox=  2
     iter. #   149  RMS(g-h-1)= 2.203E-04  nbox=  3
     iter. #   150  RMS(g-h-1)= 2.187E-04  nbox=  4
     iter. #   151  RMS(g-h-1)= 2.172E-04  nbox=  5
     iter. #   152  RMS(g-h-1)= 2.163E-04  nbox=  6
     iter. #   153  RMS(g-h-1)= 2.151E-04  nbox=  7
     iter. #   154  RMS(g-h-1)= 2.148E-04  nbox=  8
     iter. #   155  RMS(g-h-1)= 2.135E-04  nbox=  9
     iter. #   156  RMS(g-h-1)= 2.124E-04  nbox= 10
     iter. #   157  RMS(g-h-1)= 2.110E-04  nbox= 11
     iter. #   158  RMS(g-h-1)= 2.109E-04  nbox= 12
     iter. #   159  RMS(g-h-1)= 2.089E-04  nbox= 13
     iter. #   160  RMS(g-h-1)= 2.072E-04  nbox= 14
     iter. #   161  RMS(g-h-1)= 2.055E-04  nbox= 15
     iter. #   162  RMS(g-h-1)= 2.034E-04  nbox= 16
     iter. #   163  RMS(g-h-1)= 2.041E-04  nbox= 17
     iter. #   164  RMS(g-h-1)= 2.045E-04  nbox=  2
     iter. #   165  RMS(g-h-1)= 2.016E-04  nbox=  3
     iter. #   166  RMS(g-h-1)= 2.004E-04  nbox=  4
     iter. #   167  RMS(g-h-1)= 1.993E-04  nbox=  5
     iter. #   168  RMS(g-h-1)= 1.984E-04  nbox=  6
     iter. #   169  RMS(g-h-1)= 1.976E-04  nbox=  7
     iter. #   170  RMS(g-h-1)= 1.970E-04  nbox=  8
     iter. #   171  RMS(g-h-1)= 1.964E-04  nbox=  9
     iter. #   172  RMS(g-h-1)= 1.954E-04  nbox= 10
     iter. #   173  RMS(g-h-1)= 1.945E-04  nbox= 11
     iter. #   174  RMS(g-h-1)= 1.933E-04  nbox= 12
     iter. #   175  RMS(g-h-1)= 1.937E-04  nbox= 13
     iter. #   176  RMS(g-h-1)= 1.914E-04  nbox= 14
     iter. #   177  RMS(g-h-1)= 1.903E-04  nbox= 15
     iter. #   178  RMS(g-h-1)= 1.887E-04  nbox= 16
     iter. #   179  RMS(g-h-1)= 1.896E-04  nbox= 17
     iter. #   180  RMS(g-h-1)= 1.899E-04  nbox=  2
     iter. #   181  RMS(g-h-1)= 1.873E-04  nbox=  3
     iter. #   182  RMS(g-h-1)= 1.861E-04  nbox=  4
     iter. #   183  RMS(g-h-1)= 1.854E-04  nbox=  5
     iter. #   184  RMS(g-h-1)= 1.840E-04  nbox=  6
     iter. #   185  RMS(g-h-1)= 1.843E-04  nbox=  7
     iter. #   186  RMS(g-h-1)= 1.825E-04  nbox=  8
     iter. #   187  RMS(g-h-1)= 1.813E-04  nbox=  9
     iter. #   188  RMS(g-h-1)= 1.800E-04  nbox= 10
     iter. #   189  RMS(g-h-1)= 1.788E-04  nbox= 11
     iter. #   190  RMS(g-h-1)= 1.781E-04  nbox= 12
     iter. #   191  RMS(g-h-1)= 1.763E-04  nbox= 13
     iter. #   192  RMS(g-h-1)= 1.748E-04  nbox= 14
     iter. #   193  RMS(g-h-1)= 1.734E-04  nbox= 15
     iter. #   194  RMS(g-h-1)= 1.719E-04  nbox= 16
     iter. #   195  RMS(g-h-1)= 1.713E-04  nbox= 17
     iter. #   196  RMS(g-h-1)= 1.708E-04  nbox=  2
     iter. #   197  RMS(g-h-1)= 1.691E-04  nbox=  3
     iter. #   198  RMS(g-h-1)= 1.676E-04  nbox=  4
     iter. #   199  RMS(g-h-1)= 1.658E-04  nbox=  5
     iter. #   200  RMS(g-h-1)= 1.641E-04  nbox=  6
     iter. #   201  RMS(g-h-1)= 1.623E-04  nbox=  7
     iter. #   202  RMS(g-h-1)= 1.620E-04  nbox=  8
     iter. #   203  RMS(g-h-1)= 1.596E-04  nbox=  9
     iter. #   204  RMS(g-h-1)= 1.580E-04  nbox= 10
     iter. #   205  RMS(g-h-1)= 1.561E-04  nbox= 11
     iter. #   206  RMS(g-h-1)= 1.542E-04  nbox= 12
     iter. #   207  RMS(g-h-1)= 1.529E-04  nbox= 13
     iter. #   208  RMS(g-h-1)= 1.514E-04  nbox= 14
     iter. #   209  RMS(g-h-1)= 1.505E-04  nbox= 15
     iter. #   210  RMS(g-h-1)= 1.487E-04  nbox= 16
     iter. #   211  RMS(g-h-1)= 1.465E-04  nbox= 17
     iter. #   212  RMS(g-h-1)= 1.468E-04  nbox=  2
     iter. #   213  RMS(g-h-1)= 1.440E-04  nbox=  3
     iter. #   214  RMS(g-h-1)= 1.420E-04  nbox=  4
     iter. #   215  RMS(g-h-1)= 1.408E-04  nbox=  5
     iter. #   216  RMS(g-h-1)= 1.395E-04  nbox=  6
     iter. #   217  RMS(g-h-1)= 1.380E-04  nbox=  7
     iter. #   218  RMS(g-h-1)= 1.365E-04  nbox=  8
     iter. #   219  RMS(g-h-1)= 1.348E-04  nbox=  9
     iter. #   220  RMS(g-h-1)= 1.334E-04  nbox= 10
     iter. #   221  RMS(g-h-1)= 1.309E-04  nbox= 11
     iter. #   222  RMS(g-h-1)= 1.318E-04  nbox= 12
     iter. #   223  RMS(g-h-1)= 1.285E-04  nbox= 13
     iter. #   224  RMS(g-h-1)= 1.267E-04  nbox= 14
     iter. #   225  RMS(g-h-1)= 1.251E-04  nbox= 15
     iter. #   226  RMS(g-h-1)= 1.230E-04  nbox= 16
     iter. #   227  RMS(g-h-1)= 1.236E-04  nbox= 17
     iter. #   228  RMS(g-h-1)= 1.238E-04  nbox=  2
     iter. #   229  RMS(g-h-1)= 1.213E-04  nbox=  3
     iter. #   230  RMS(g-h-1)= 1.197E-04  nbox=  4
     iter. #   231  RMS(g-h-1)= 1.183E-04  nbox=  5
     iter. #   232  RMS(g-h-1)= 1.169E-04  nbox=  6
     iter. #   233  RMS(g-h-1)= 1.159E-04  nbox=  7
     iter. #   234  RMS(g-h-1)= 1.153E-04  nbox=  8
     iter. #   235  RMS(g-h-1)= 1.142E-04  nbox=  9
     iter. #   236  RMS(g-h-1)= 1.131E-04  nbox= 10
     iter. #   237  RMS(g-h-1)= 1.119E-04  nbox= 11
     iter. #   238  RMS(g-h-1)= 1.105E-04  nbox= 12
     iter. #   239  RMS(g-h-1)= 1.094E-04  nbox= 13
     iter. #   240  RMS(g-h-1)= 1.083E-04  nbox= 14
     iter. #   241  RMS(g-h-1)= 1.067E-04  nbox= 15
     iter. #   242  RMS(g-h-1)= 1.049E-04  nbox= 16
     iter. #   243  RMS(g-h-1)= 1.034E-04  nbox= 17
     iter. #   244  RMS(g-h-1)= 1.031E-04  nbox=  2
     iter. #   245  RMS(g-h-1)= 1.018E-04  nbox=  3
     iter. #   246  RMS(g-h-1)= 1.006E-04  nbox=  4
     iter. #   247  RMS(g-h-1)= 1.000E-04  nbox=  5
     iter. #   248  RMS(g-h-1)= 9.911E-05  nbox=  6
     iter. #   249  RMS(g-h-1)= 9.812E-05  nbox=  7
     iter. #   250  RMS(g-h-1)= 9.698E-05  nbox=  8
     iter. #   251  RMS(g-h-1)= 9.606E-05  nbox=  9
     iter. #   252  RMS(g-h-1)= 9.496E-05  nbox= 10
     iter. #   253  RMS(g-h-1)= 9.419E-05  nbox= 11
     iter. #   254  RMS(g-h-1)= 9.353E-05  nbox= 12
     iter. #   255  RMS(g-h-1)= 9.244E-05  nbox= 13
     iter. #   256  RMS(g-h-1)= 9.150E-05  nbox= 14
     iter. #   257  RMS(g-h-1)= 9.064E-05  nbox= 15
     iter. #   258  RMS(g-h-1)= 8.988E-05  nbox= 16
     iter. #   259  RMS(g-h-1)= 8.922E-05  nbox= 17
     iter. #   260  RMS(g-h-1)= 8.889E-05  nbox=  2
     iter. #   261  RMS(g-h-1)= 8.829E-05  nbox=  3
     iter. #   262  RMS(g-h-1)= 8.756E-05  nbox=  4
     iter. #   263  RMS(g-h-1)= 8.694E-05  nbox=  5
     iter. #   264  RMS(g-h-1)= 8.645E-05  nbox=  6
     iter. #   265  RMS(g-h-1)= 8.606E-05  nbox=  7
     iter. #   266  RMS(g-h-1)= 8.525E-05  nbox=  8
     iter. #   267  RMS(g-h-1)= 8.446E-05  nbox=  9
     iter. #   268  RMS(g-h-1)= 8.361E-05  nbox= 10
     iter. #   269  RMS(g-h-1)= 8.282E-05  nbox= 11
     iter. #   270  RMS(g-h-1)= 8.205E-05  nbox= 12
     iter. #   271  RMS(g-h-1)= 8.167E-05  nbox= 13
     iter. #   272  RMS(g-h-1)= 8.090E-05  nbox= 14
     iter. #   273  RMS(g-h-1)= 8.022E-05  nbox= 15
     iter. #   274  RMS(g-h-1)= 7.948E-05  nbox= 16
     iter. #   275  RMS(g-h-1)= 7.890E-05  nbox= 17
     iter. #   276  RMS(g-h-1)= 7.870E-05  nbox=  2
     iter. #   277  RMS(g-h-1)= 7.801E-05  nbox=  3
     iter. #   278  RMS(g-h-1)= 7.732E-05  nbox=  4
     iter. #   279  RMS(g-h-1)= 7.664E-05  nbox=  5
     iter. #   280  RMS(g-h-1)= 7.624E-05  nbox=  6
     iter. #   281  RMS(g-h-1)= 7.582E-05  nbox=  7
     iter. #   282  RMS(g-h-1)= 7.505E-05  nbox=  8
     iter. #   283  RMS(g-h-1)= 7.432E-05  nbox=  9
     iter. #   284  RMS(g-h-1)= 7.351E-05  nbox= 10
     iter. #   285  RMS(g-h-1)= 7.269E-05  nbox= 11
     iter. #   286  RMS(g-h-1)= 7.268E-05  nbox= 12
     iter. #   287  RMS(g-h-1)= 7.139E-05  nbox= 13
     iter. #   288  RMS(g-h-1)= 7.105E-05  nbox= 14
     iter. #   289  RMS(g-h-1)= 7.026E-05  nbox= 15
     iter. #   290  RMS(g-h-1)= 6.962E-05  nbox= 16
     iter. #   291  RMS(g-h-1)= 6.896E-05  nbox= 17
     iter. #   292  RMS(g-h-1)= 6.875E-05  nbox=  2
     iter. #   293  RMS(g-h-1)= 6.817E-05  nbox=  3
     iter. #   294  RMS(g-h-1)= 6.752E-05  nbox=  4
     iter. #   295  RMS(g-h-1)= 6.785E-05  nbox=  5
     iter. #   296  RMS(g-h-1)= 6.646E-05  nbox=  6
     iter. #   297  RMS(g-h-1)= 6.621E-05  nbox=  7
     iter. #   298  RMS(g-h-1)= 6.546E-05  nbox=  8
     iter. #   299  RMS(g-h-1)= 6.494E-05  nbox=  9
     iter. #   300  RMS(g-h-1)= 6.444E-05  nbox= 10
     iter. #   301  RMS(g-h-1)= 6.401E-05  nbox= 11
     iter. #   302  RMS(g-h-1)= 6.386E-05  nbox= 12
     iter. #   303  RMS(g-h-1)= 6.356E-05  nbox= 13
     iter. #   304  RMS(g-h-1)= 6.325E-05  nbox= 14
     iter. #   305  RMS(g-h-1)= 6.297E-05  nbox= 15
     iter. #   306  RMS(g-h-1)= 6.266E-05  nbox= 16
     iter. #   307  RMS(g-h-1)= 6.234E-05  nbox= 17
     iter. #   308  RMS(g-h-1)= 6.228E-05  nbox=  2
     iter. #   309  RMS(g-h-1)= 6.182E-05  nbox=  3
     iter. #   310  RMS(g-h-1)= 6.241E-05  nbox=  4
     iter. #   311  RMS(g-h-1)= 6.116E-05  nbox=  5
     iter. #   312  RMS(g-h-1)= 6.097E-05  nbox=  6
     iter. #   313  RMS(g-h-1)= 6.059E-05  nbox=  7
     iter. #   314  RMS(g-h-1)= 6.027E-05  nbox=  8
     iter. #   315  RMS(g-h-1)= 6.001E-05  nbox=  9
     iter. #   316  RMS(g-h-1)= 5.964E-05  nbox= 10
     iter. #   317  RMS(g-h-1)= 5.968E-05  nbox= 11
     iter. #   318  RMS(g-h-1)= 5.929E-05  nbox= 12
     iter. #   319  RMS(g-h-1)= 5.911E-05  nbox= 13
     iter. #   320  RMS(g-h-1)= 5.893E-05  nbox= 14
     iter. #   321  RMS(g-h-1)= 5.871E-05  nbox= 15
     iter. #   322  RMS(g-h-1)= 5.845E-05  nbox= 16
     iter. #   323  RMS(g-h-1)= 5.843E-05  nbox= 17
     iter. #   324  RMS(g-h-1)= 5.838E-05  nbox=  2
     iter. #   325  RMS(g-h-1)= 5.810E-05  nbox=  3
     iter. #   326  RMS(g-h-1)= 5.780E-05  nbox=  4
     iter. #   327  RMS(g-h-1)= 5.754E-05  nbox=  5
     iter. #   328  RMS(g-h-1)= 5.719E-05  nbox=  6
     iter. #   329  RMS(g-h-1)= 5.738E-05  nbox=  7
     iter. #   330  RMS(g-h-1)= 5.682E-05  nbox=  8
     iter. #   331  RMS(g-h-1)= 5.655E-05  nbox=  9
     iter. #   332  RMS(g-h-1)= 5.639E-05  nbox= 10
     iter. #   333  RMS(g-h-1)= 5.595E-05  nbox= 11
     iter. #   334  RMS(g-h-1)= 5.609E-05  nbox= 12
     iter. #   335  RMS(g-h-1)= 5.555E-05  nbox= 13
     iter. #   336  RMS(g-h-1)= 5.523E-05  nbox= 14
     iter. #   337  RMS(g-h-1)= 5.487E-05  nbox= 15
     iter. #   338  RMS(g-h-1)= 5.471E-05  nbox= 16
     iter. #   339  RMS(g-h-1)= 5.440E-05  nbox= 17
     iter. #   340  RMS(g-h-1)= 5.426E-05  nbox=  2
     iter. #   341  RMS(g-h-1)= 5.397E-05  nbox=  3
     iter. #   342  RMS(g-h-1)= 5.370E-05  nbox=  4
     iter. #   343  RMS(g-h-1)= 5.340E-05  nbox=  5
     iter. #   344  RMS(g-h-1)= 5.329E-05  nbox=  6
     iter. #   345  RMS(g-h-1)= 5.305E-05  nbox=  7
     iter. #   346  RMS(g-h-1)= 5.280E-05  nbox=  8
     iter. #   347  RMS(g-h-1)= 5.262E-05  nbox=  9
     iter. #   348  RMS(g-h-1)= 5.239E-05  nbox= 10
     iter. #   349  RMS(g-h-1)= 5.226E-05  nbox= 11
     iter. #   350  RMS(g-h-1)= 5.199E-05  nbox= 12
     iter. #   351  RMS(g-h-1)= 5.213E-05  nbox= 13
     iter. #   352  RMS(g-h-1)= 5.162E-05  nbox= 14
     iter. #   353  RMS(g-h-1)= 5.145E-05  nbox= 15
     iter. #   354  RMS(g-h-1)= 5.121E-05  nbox= 16
     iter. #   355  RMS(g-h-1)= 5.102E-05  nbox= 17
     iter. #   356  RMS(g-h-1)= 5.094E-05  nbox=  2
     iter. #   357  RMS(g-h-1)= 5.069E-05  nbox=  3
     iter. #   358  RMS(g-h-1)= 5.047E-05  nbox=  4
     iter. #   359  RMS(g-h-1)= 5.026E-05  nbox=  5
     iter. #   360  RMS(g-h-1)= 5.008E-05  nbox=  6
     iter. #   361  RMS(g-h-1)= 4.997E-05  nbox=  7
     iter. #   362  RMS(g-h-1)= 4.977E-05  nbox=  8
     iter. #   363  RMS(g-h-1)= 4.959E-05  nbox=  9
     iter. #   364  RMS(g-h-1)= 4.939E-05  nbox= 10
     iter. #   365  RMS(g-h-1)= 4.931E-05  nbox= 11
     iter. #   366  RMS(g-h-1)= 4.920E-05  nbox= 12
     iter. #   367  RMS(g-h-1)= 4.920E-05  nbox= 13
     iter. #   368  RMS(g-h-1)= 4.883E-05  nbox= 14
     iter. #   369  RMS(g-h-1)= 4.872E-05  nbox= 15
     iter. #   370  RMS(g-h-1)= 4.856E-05  nbox= 16
     iter. #   371  RMS(g-h-1)= 4.842E-05  nbox= 17
     iter. #   372  RMS(g-h-1)= 4.841E-05  nbox=  2
     iter. #   373  RMS(g-h-1)= 4.822E-05  nbox=  3
     iter. #   374  RMS(g-h-1)= 4.814E-05  nbox=  4
     iter. #   375  RMS(g-h-1)= 4.808E-05  nbox=  5
     iter. #   376  RMS(g-h-1)= 4.825E-05  nbox=  6
     iter. #   377  RMS(g-h-1)= 4.772E-05  nbox=  7
     iter. #   378  RMS(g-h-1)= 4.763E-05  nbox=  8
     iter. #   379  RMS(g-h-1)= 4.746E-05  nbox=  9
     iter. #   380  RMS(g-h-1)= 4.733E-05  nbox= 10
     iter. #   381  RMS(g-h-1)= 4.718E-05  nbox= 11
     iter. #   382  RMS(g-h-1)= 4.709E-05  nbox= 12
     iter. #   383  RMS(g-h-1)= 4.696E-05  nbox= 13
     iter. #   384  RMS(g-h-1)= 4.688E-05  nbox= 14
     iter. #   385  RMS(g-h-1)= 4.676E-05  nbox= 15
     iter. #   386  RMS(g-h-1)= 4.662E-05  nbox= 16
     iter. #   387  RMS(g-h-1)= 4.650E-05  nbox= 17
     iter. #   388  RMS(g-h-1)= 4.645E-05  nbox=  2
     iter. #   389  RMS(g-h-1)= 4.629E-05  nbox=  3
     iter. #   390  RMS(g-h-1)= 4.618E-05  nbox=  4
     iter. #   391  RMS(g-h-1)= 4.607E-05  nbox=  5
     iter. #   392  RMS(g-h-1)= 4.596E-05  nbox=  6
     iter. #   393  RMS(g-h-1)= 4.613E-05  nbox=  7
     iter. #   394  RMS(g-h-1)= 4.577E-05  nbox=  8
     iter. #   395  RMS(g-h-1)= 4.574E-05  nbox=  9
     iter. #   396  RMS(g-h-1)= 4.560E-05  nbox= 10
     iter. #   397  RMS(g-h-1)= 4.547E-05  nbox= 11
     iter. #   398  RMS(g-h-1)= 4.534E-05  nbox= 12
     iter. #   399  RMS(g-h-1)= 4.536E-05  nbox= 13
     iter. #   400  RMS(g-h-1)= 4.516E-05  nbox= 14
     iter. #   401  RMS(g-h-1)= 4.501E-05  nbox= 15
     iter. #   402  RMS(g-h-1)= 4.484E-05  nbox= 16
     iter. #   403  RMS(g-h-1)= 4.501E-05  nbox= 17
     iter. #   404  RMS(g-h-1)= 4.514E-05  nbox=  2
     iter. #   405  RMS(g-h-1)= 4.467E-05  nbox=  3
     iter. #   406  RMS(g-h-1)= 4.453E-05  nbox=  4
     iter. #   407  RMS(g-h-1)= 4.441E-05  nbox=  5
     iter. #   408  RMS(g-h-1)= 4.429E-05  nbox=  6
     iter. #   409  RMS(g-h-1)= 4.422E-05  nbox=  7
     iter. #   410  RMS(g-h-1)= 4.414E-05  nbox=  8
     iter. #   411  RMS(g-h-1)= 4.403E-05  nbox=  9
     iter. #   412  RMS(g-h-1)= 4.389E-05  nbox= 10
     iter. #   413  RMS(g-h-1)= 4.377E-05  nbox= 11
     iter. #   414  RMS(g-h-1)= 4.368E-05  nbox= 12
     iter. #   415  RMS(g-h-1)= 4.356E-05  nbox= 13
     iter. #   416  RMS(g-h-1)= 4.355E-05  nbox= 14
     iter. #   417  RMS(g-h-1)= 4.341E-05  nbox= 15
     iter. #   418  RMS(g-h-1)= 4.332E-05  nbox= 16
     iter. #   419  RMS(g-h-1)= 4.324E-05  nbox= 17
     iter. #   420  RMS(g-h-1)= 4.321E-05  nbox=  2
     iter. #   421  RMS(g-h-1)= 4.311E-05  nbox=  3
     iter. #   422  RMS(g-h-1)= 4.301E-05  nbox=  4
     iter. #   423  RMS(g-h-1)= 4.291E-05  nbox=  5
     iter. #   424  RMS(g-h-1)= 4.279E-05  nbox=  6
     iter. #   425  RMS(g-h-1)= 4.273E-05  nbox=  7
     iter. #   426  RMS(g-h-1)= 4.261E-05  nbox=  8
     iter. #   427  RMS(g-h-1)= 4.247E-05  nbox=  9
     iter. #   428  RMS(g-h-1)= 4.245E-05  nbox= 10
     iter. #   429  RMS(g-h-1)= 4.227E-05  nbox= 11
     iter. #   430  RMS(g-h-1)= 4.234E-05  nbox= 12
     iter. #   431  RMS(g-h-1)= 4.219E-05  nbox= 13
     iter. #   432  RMS(g-h-1)= 4.211E-05  nbox= 14
     iter. #   433  RMS(g-h-1)= 4.200E-05  nbox= 15
     iter. #   434  RMS(g-h-1)= 4.191E-05  nbox= 16
     iter. #   435  RMS(g-h-1)= 4.188E-05  nbox= 17
     iter. #   436  RMS(g-h-1)= 4.185E-05  nbox=  2
     iter. #   437  RMS(g-h-1)= 4.176E-05  nbox=  3
     iter. #   438  RMS(g-h-1)= 4.167E-05  nbox=  4
     iter. #   439  RMS(g-h-1)= 4.157E-05  nbox=  5
     iter. #   440  RMS(g-h-1)= 4.147E-05  nbox=  6
     iter. #   441  RMS(g-h-1)= 4.138E-05  nbox=  7
     iter. #   442  RMS(g-h-1)= 4.126E-05  nbox=  8
     iter. #   443  RMS(g-h-1)= 4.117E-05  nbox=  9
     iter. #   444  RMS(g-h-1)= 4.111E-05  nbox= 10
     iter. #   445  RMS(g-h-1)= 4.101E-05  nbox= 11
     iter. #   446  RMS(g-h-1)= 4.088E-05  nbox= 12
     iter. #   447  RMS(g-h-1)= 4.075E-05  nbox= 13
     iter. #   448  RMS(g-h-1)= 4.059E-05  nbox= 14
     iter. #   449  RMS(g-h-1)= 4.043E-05  nbox= 15
     iter. #   450  RMS(g-h-1)= 4.031E-05  nbox= 16
     iter. #   451  RMS(g-h-1)= 4.017E-05  nbox= 17
     iter. #   452  RMS(g-h-1)= 4.012E-05  nbox=  2
     iter. #   453  RMS(g-h-1)= 3.995E-05  nbox=  3
     iter. #   454  RMS(g-h-1)= 3.978E-05  nbox=  4
     iter. #   455  RMS(g-h-1)= 3.965E-05  nbox=  5
     iter. #   456  RMS(g-h-1)= 3.952E-05  nbox=  6
     iter. #   457  RMS(g-h-1)= 3.946E-05  nbox=  7
     iter. #   458  RMS(g-h-1)= 3.935E-05  nbox=  8
     iter. #   459  RMS(g-h-1)= 3.922E-05  nbox=  9
     iter. #   460  RMS(g-h-1)= 3.911E-05  nbox= 10
     iter. #   461  RMS(g-h-1)= 3.899E-05  nbox= 11
     iter. #   462  RMS(g-h-1)= 3.888E-05  nbox= 12
     iter. #   463  RMS(g-h-1)= 3.880E-05  nbox= 13
     iter. #   464  RMS(g-h-1)= 3.872E-05  nbox= 14
     iter. #   465  RMS(g-h-1)= 3.863E-05  nbox= 15
     iter. #   466  RMS(g-h-1)= 3.853E-05  nbox= 16
     iter. #   467  RMS(g-h-1)= 3.844E-05  nbox= 17
     iter. #   468  RMS(g-h-1)= 3.841E-05  nbox=  2
     iter. #   469  RMS(g-h-1)= 3.830E-05  nbox=  3
     iter. #   470  RMS(g-h-1)= 3.820E-05  nbox=  4
     iter. #   471  RMS(g-h-1)= 3.810E-05  nbox=  5
     iter. #   472  RMS(g-h-1)= 3.801E-05  nbox=  6
     iter. #   473  RMS(g-h-1)= 3.794E-05  nbox=  7
     iter. #   474  RMS(g-h-1)= 3.786E-05  nbox=  8
     iter. #   475  RMS(g-h-1)= 3.777E-05  nbox=  9
     iter. #   476  RMS(g-h-1)= 3.768E-05  nbox= 10
     iter. #   477  RMS(g-h-1)= 3.759E-05  nbox= 11
     iter. #   478  RMS(g-h-1)= 3.751E-05  nbox= 12
     iter. #   479  RMS(g-h-1)= 3.745E-05  nbox= 13
     iter. #   480  RMS(g-h-1)= 3.732E-05  nbox= 14
     iter. #   481  RMS(g-h-1)= 3.731E-05  nbox= 15
     iter. #   482  RMS(g-h-1)= 3.718E-05  nbox= 16
     iter. #   483  RMS(g-h-1)= 3.707E-05  nbox= 17
     iter. #   484  RMS(g-h-1)= 3.706E-05  nbox=  2
     iter. #   485  RMS(g-h-1)= 3.691E-05  nbox=  3
     iter. #   486  RMS(g-h-1)= 3.678E-05  nbox=  4
     iter. #   487  RMS(g-h-1)= 3.662E-05  nbox=  5
     iter. #   488  RMS(g-h-1)= 3.645E-05  nbox=  6
     iter. #   489  RMS(g-h-1)= 3.635E-05  nbox=  7
     iter. #   490  RMS(g-h-1)= 3.611E-05  nbox=  8
     iter. #   491  RMS(g-h-1)= 3.584E-05  nbox=  9
     iter. #   492  RMS(g-h-1)= 3.561E-05  nbox= 10
     iter. #   493  RMS(g-h-1)= 3.535E-05  nbox= 11
     iter. #   494  RMS(g-h-1)= 3.515E-05  nbox= 12
     iter. #   495  RMS(g-h-1)= 3.493E-05  nbox= 13
     iter. #   496  RMS(g-h-1)= 3.482E-05  nbox= 14
     iter. #   497  RMS(g-h-1)= 3.464E-05  nbox= 15
     iter. #   498  RMS(g-h-1)= 3.446E-05  nbox= 16
     iter. #   499  RMS(g-h-1)= 3.427E-05  nbox= 17
     iter. #   500  RMS(g-h-1)= 3.423E-05  nbox=  2
     iter. #   501  RMS(g-h-1)= 3.403E-05  nbox=  3
     iter. #   502  RMS(g-h-1)= 3.384E-05  nbox=  4
     iter. #   503  RMS(g-h-1)= 3.365E-05  nbox=  5
     iter. #   504  RMS(g-h-1)= 3.348E-05  nbox=  6
     iter. #   505  RMS(g-h-1)= 3.341E-05  nbox=  7
     iter. #   506  RMS(g-h-1)= 3.319E-05  nbox=  8
     iter. #   507  RMS(g-h-1)= 3.301E-05  nbox=  9
     iter. #   508  RMS(g-h-1)= 3.284E-05  nbox= 10
     iter. #   509  RMS(g-h-1)= 3.263E-05  nbox= 11
     iter. #   510  RMS(g-h-1)= 3.262E-05  nbox= 12
     iter. #   511  RMS(g-h-1)= 3.241E-05  nbox= 13
     iter. #   512  RMS(g-h-1)= 3.226E-05  nbox= 14
     iter. #   513  RMS(g-h-1)= 3.207E-05  nbox= 15
     iter. #   514  RMS(g-h-1)= 3.191E-05  nbox= 16
     iter. #   515  RMS(g-h-1)= 3.178E-05  nbox= 17
     iter. #   516  RMS(g-h-1)= 3.174E-05  nbox=  2
     iter. #   517  RMS(g-h-1)= 3.161E-05  nbox=  3
     iter. #   518  RMS(g-h-1)= 3.150E-05  nbox=  4
     iter. #   519  RMS(g-h-1)= 3.138E-05  nbox=  5
     iter. #   520  RMS(g-h-1)= 3.127E-05  nbox=  6
     iter. #   521  RMS(g-h-1)= 3.122E-05  nbox=  7
     iter. #   522  RMS(g-h-1)= 3.110E-05  nbox=  8
     iter. #   523  RMS(g-h-1)= 3.099E-05  nbox=  9
     iter. #   524  RMS(g-h-1)= 3.088E-05  nbox= 10
     iter. #   525  RMS(g-h-1)= 3.078E-05  nbox= 11
     iter. #   526  RMS(g-h-1)= 3.066E-05  nbox= 12
     iter. #   527  RMS(g-h-1)= 3.054E-05  nbox= 13
     iter. #   528  RMS(g-h-1)= 3.043E-05  nbox= 14
     iter. #   529  RMS(g-h-1)= 3.037E-05  nbox= 15
     iter. #   530  RMS(g-h-1)= 3.027E-05  nbox= 16
     iter. #   531  RMS(g-h-1)= 3.016E-05  nbox= 17
     iter. #   532  RMS(g-h-1)= 3.013E-05  nbox=  2
     iter. #   533  RMS(g-h-1)= 3.001E-05  nbox=  3
     iter. #   534  RMS(g-h-1)= 2.991E-05  nbox=  4
     iter. #   535  RMS(g-h-1)= 2.981E-05  nbox=  5
     iter. #   536  RMS(g-h-1)= 2.971E-05  nbox=  6
     iter. #   537  RMS(g-h-1)= 2.964E-05  nbox=  7
     iter. #   538  RMS(g-h-1)= 2.958E-05  nbox=  8
     iter. #   539  RMS(g-h-1)= 2.947E-05  nbox=  9
     iter. #   540  RMS(g-h-1)= 2.938E-05  nbox= 10
     iter. #   541  RMS(g-h-1)= 2.927E-05  nbox= 11
     iter. #   542  RMS(g-h-1)= 2.915E-05  nbox= 12
     iter. #   543  RMS(g-h-1)= 2.904E-05  nbox= 13
     iter. #   544  RMS(g-h-1)= 2.893E-05  nbox= 14
     iter. #   545  RMS(g-h-1)= 2.888E-05  nbox= 15
     iter. #   546  RMS(g-h-1)= 2.880E-05  nbox= 16
     iter. #   547  RMS(g-h-1)= 2.870E-05  nbox= 17
     iter. #   548  RMS(g-h-1)= 2.868E-05  nbox=  2
     iter. #   549  RMS(g-h-1)= 2.858E-05  nbox=  3
     iter. #   550  RMS(g-h-1)= 2.847E-05  nbox=  4
     iter. #   551  RMS(g-h-1)= 2.838E-05  nbox=  5
     iter. #   552  RMS(g-h-1)= 2.829E-05  nbox=  6
     iter. #   553  RMS(g-h-1)= 2.823E-05  nbox=  7
     iter. #   554  RMS(g-h-1)= 2.816E-05  nbox=  8
     iter. #   555  RMS(g-h-1)= 2.807E-05  nbox=  9
     iter. #   556  RMS(g-h-1)= 2.799E-05  nbox= 10
     iter. #   557  RMS(g-h-1)= 2.791E-05  nbox= 11
     iter. #   558  RMS(g-h-1)= 2.782E-05  nbox= 12
     iter. #   559  RMS(g-h-1)= 2.773E-05  nbox= 13
     iter. #   560  RMS(g-h-1)= 2.766E-05  nbox= 14
     iter. #   561  RMS(g-h-1)= 2.758E-05  nbox= 15
     iter. #   562  RMS(g-h-1)= 2.752E-05  nbox= 16
     iter. #   563  RMS(g-h-1)= 2.742E-05  nbox= 17
     iter. #   564  RMS(g-h-1)= 2.740E-05  nbox=  2
     iter. #   565  RMS(g-h-1)= 2.728E-05  nbox=  3
     iter. #   566  RMS(g-h-1)= 2.719E-05  nbox=  4
     iter. #   567  RMS(g-h-1)= 2.709E-05  nbox=  5
     iter. #   568  RMS(g-h-1)= 2.701E-05  nbox=  6
     iter. #   569  RMS(g-h-1)= 2.694E-05  nbox=  7
     iter. #   570  RMS(g-h-1)= 2.688E-05  nbox=  8
     iter. #   571  RMS(g-h-1)= 2.679E-05  nbox=  9
     iter. #   572  RMS(g-h-1)= 2.669E-05  nbox= 10
     iter. #   573  RMS(g-h-1)= 2.660E-05  nbox= 11
     iter. #   574  RMS(g-h-1)= 2.650E-05  nbox= 12
     iter. #   575  RMS(g-h-1)= 2.642E-05  nbox= 13
     iter. #   576  RMS(g-h-1)= 2.635E-05  nbox= 14
     iter. #   577  RMS(g-h-1)= 2.631E-05  nbox= 15
     iter. #   578  RMS(g-h-1)= 2.623E-05  nbox= 16
     iter. #   579  RMS(g-h-1)= 2.615E-05  nbox= 17
     iter. #   580  RMS(g-h-1)= 2.614E-05  nbox=  2
     iter. #   581  RMS(g-h-1)= 2.607E-05  nbox=  3
     iter. #   582  RMS(g-h-1)= 2.600E-05  nbox=  4
     iter. #   583  RMS(g-h-1)= 2.593E-05  nbox=  5
     iter. #   584  RMS(g-h-1)= 2.587E-05  nbox=  6
     iter. #   585  RMS(g-h-1)= 2.583E-05  nbox=  7
     iter. #   586  RMS(g-h-1)= 2.578E-05  nbox=  8
     iter. #   587  RMS(g-h-1)= 2.572E-05  nbox=  9
     iter. #   588  RMS(g-h-1)= 2.566E-05  nbox= 10
     iter. #   589  RMS(g-h-1)= 2.561E-05  nbox= 11
     iter. #   590  RMS(g-h-1)= 2.556E-05  nbox= 12
     iter. #   591  RMS(g-h-1)= 2.552E-05  nbox= 13
     iter. #   592  RMS(g-h-1)= 2.548E-05  nbox= 14
     iter. #   593  RMS(g-h-1)= 2.545E-05  nbox= 15
     iter. #   594  RMS(g-h-1)= 2.541E-05  nbox= 16
     iter. #   595  RMS(g-h-1)= 2.537E-05  nbox= 17
     iter. #   596  RMS(g-h-1)= 2.535E-05  nbox=  2
     iter. #   597  RMS(g-h-1)= 2.531E-05  nbox=  3
     iter. #   598  RMS(g-h-1)= 2.527E-05  nbox=  4
     iter. #   599  RMS(g-h-1)= 2.523E-05  nbox=  5
     iter. #   600  RMS(g-h-1)= 2.520E-05  nbox=  6
     iter. #   601  RMS(g-h-1)= 2.517E-05  nbox=  7
     iter. #   602  RMS(g-h-1)= 2.514E-05  nbox=  8
     iter. #   603  RMS(g-h-1)= 2.512E-05  nbox=  9
     iter. #   604  RMS(g-h-1)= 2.507E-05  nbox= 10
     iter. #   605  RMS(g-h-1)= 2.504E-05  nbox= 11
     iter. #   606  RMS(g-h-1)= 2.501E-05  nbox= 12
     iter. #   607  RMS(g-h-1)= 2.497E-05  nbox= 13
     iter. #   608  RMS(g-h-1)= 2.494E-05  nbox= 14
     iter. #   609  RMS(g-h-1)= 2.490E-05  nbox= 15
     iter. #   610  RMS(g-h-1)= 2.488E-05  nbox= 16
     iter. #   611  RMS(g-h-1)= 2.485E-05  nbox= 17
     iter. #   612  RMS(g-h-1)= 2.484E-05  nbox=  2
     iter. #   613  RMS(g-h-1)= 2.480E-05  nbox=  3
     iter. #   614  RMS(g-h-1)= 2.477E-05  nbox=  4
     iter. #   615  RMS(g-h-1)= 2.473E-05  nbox=  5
     iter. #   616  RMS(g-h-1)= 2.470E-05  nbox=  6
     iter. #   617  RMS(g-h-1)= 2.467E-05  nbox=  7
     iter. #   618  RMS(g-h-1)= 2.465E-05  nbox=  8
     iter. #   619  RMS(g-h-1)= 2.462E-05  nbox=  9
     iter. #   620  RMS(g-h-1)= 2.459E-05  nbox= 10
     iter. #   621  RMS(g-h-1)= 2.456E-05  nbox= 11
     iter. #   622  RMS(g-h-1)= 2.453E-05  nbox= 12
     iter. #   623  RMS(g-h-1)= 2.449E-05  nbox= 13
     iter. #   624  RMS(g-h-1)= 2.446E-05  nbox= 14
     iter. #   625  RMS(g-h-1)= 2.442E-05  nbox= 15
     iter. #   626  RMS(g-h-1)= 2.439E-05  nbox= 16
     iter. #   627  RMS(g-h-1)= 2.437E-05  nbox= 17
     iter. #   628  RMS(g-h-1)= 2.435E-05  nbox=  2
     iter. #   629  RMS(g-h-1)= 2.431E-05  nbox=  3
     iter. #   630  RMS(g-h-1)= 2.427E-05  nbox=  4
     iter. #   631  RMS(g-h-1)= 2.422E-05  nbox=  5
     iter. #   632  RMS(g-h-1)= 2.418E-05  nbox=  6
     iter. #   633  RMS(g-h-1)= 2.414E-05  nbox=  7
     iter. #   634  RMS(g-h-1)= 2.410E-05  nbox=  8
     iter. #   635  RMS(g-h-1)= 2.406E-05  nbox=  9
     iter. #   636  RMS(g-h-1)= 2.400E-05  nbox= 10
     iter. #   637  RMS(g-h-1)= 2.395E-05  nbox= 11
     iter. #   638  RMS(g-h-1)= 2.389E-05  nbox= 12
     iter. #   639  RMS(g-h-1)= 2.382E-05  nbox= 13
     iter. #   640  RMS(g-h-1)= 2.376E-05  nbox= 14
     iter. #   641  RMS(g-h-1)= 2.369E-05  nbox= 15
     iter. #   642  RMS(g-h-1)= 2.366E-05  nbox= 16
     iter. #   643  RMS(g-h-1)= 2.360E-05  nbox= 17
     iter. #   644  RMS(g-h-1)= 2.358E-05  nbox=  2
     iter. #   645  RMS(g-h-1)= 2.351E-05  nbox=  3
     iter. #   646  RMS(g-h-1)= 2.344E-05  nbox=  4
     iter. #   647  RMS(g-h-1)= 2.337E-05  nbox=  5
     iter. #   648  RMS(g-h-1)= 2.331E-05  nbox=  6
     iter. #   649  RMS(g-h-1)= 2.328E-05  nbox=  7
     iter. #   650  RMS(g-h-1)= 2.321E-05  nbox=  8
     iter. #   651  RMS(g-h-1)= 2.314E-05  nbox=  9
     iter. #   652  RMS(g-h-1)= 2.307E-05  nbox= 10
     iter. #   653  RMS(g-h-1)= 2.300E-05  nbox= 11
     iter. #   654  RMS(g-h-1)= 2.293E-05  nbox= 12
     iter. #   655  RMS(g-h-1)= 2.285E-05  nbox= 13
     iter. #   656  RMS(g-h-1)= 2.278E-05  nbox= 14
     iter. #   657  RMS(g-h-1)= 2.273E-05  nbox= 15
     iter. #   658  RMS(g-h-1)= 2.263E-05  nbox= 16
     iter. #   659  RMS(g-h-1)= 2.254E-05  nbox= 17
     iter. #   660  RMS(g-h-1)= 2.252E-05  nbox=  2
     iter. #   661  RMS(g-h-1)= 2.242E-05  nbox=  3
     iter. #   662  RMS(g-h-1)= 2.233E-05  nbox=  4
     iter. #   663  RMS(g-h-1)= 2.223E-05  nbox=  5
     iter. #   664  RMS(g-h-1)= 2.219E-05  nbox=  6
     iter. #   665  RMS(g-h-1)= 2.214E-05  nbox=  7
     iter. #   666  RMS(g-h-1)= 2.206E-05  nbox=  8
     iter. #   667  RMS(g-h-1)= 2.199E-05  nbox=  9
     iter. #   668  RMS(g-h-1)= 2.192E-05  nbox= 10
     iter. #   669  RMS(g-h-1)= 2.184E-05  nbox= 11
     iter. #   670  RMS(g-h-1)= 2.176E-05  nbox= 12
     iter. #   671  RMS(g-h-1)= 2.168E-05  nbox= 13
     iter. #   672  RMS(g-h-1)= 2.163E-05  nbox= 14
     iter. #   673  RMS(g-h-1)= 2.157E-05  nbox= 15
     iter. #   674  RMS(g-h-1)= 2.148E-05  nbox= 16
     iter. #   675  RMS(g-h-1)= 2.139E-05  nbox= 17
     iter. #   676  RMS(g-h-1)= 2.137E-05  nbox=  2
     iter. #   677  RMS(g-h-1)= 2.126E-05  nbox=  3
     iter. #   678  RMS(g-h-1)= 2.116E-05  nbox=  4
     iter. #   679  RMS(g-h-1)= 2.105E-05  nbox=  5
     iter. #   680  RMS(g-h-1)= 2.097E-05  nbox=  6
     iter. #   681  RMS(g-h-1)= 2.091E-05  nbox=  7
     iter. #   682  RMS(g-h-1)= 2.080E-05  nbox=  8
     iter. #   683  RMS(g-h-1)= 2.068E-05  nbox=  9
     iter. #   684  RMS(g-h-1)= 2.057E-05  nbox= 10
     iter. #   685  RMS(g-h-1)= 2.048E-05  nbox= 11
     iter. #   686  RMS(g-h-1)= 2.036E-05  nbox= 12
     iter. #   687  RMS(g-h-1)= 2.026E-05  nbox= 13
     iter. #   688  RMS(g-h-1)= 2.016E-05  nbox= 14
     iter. #   689  RMS(g-h-1)= 2.010E-05  nbox= 15
     iter. #   690  RMS(g-h-1)= 1.998E-05  nbox= 16
     iter. #   691  RMS(g-h-1)= 1.987E-05  nbox= 17
     iter. #   692  RMS(g-h-1)= 1.983E-05  nbox=  2
     iter. #   693  RMS(g-h-1)= 1.969E-05  nbox=  3
     iter. #   694  RMS(g-h-1)= 1.956E-05  nbox=  4
     iter. #   695  RMS(g-h-1)= 1.942E-05  nbox=  5
     iter. #   696  RMS(g-h-1)= 1.929E-05  nbox=  6
     iter. #   697  RMS(g-h-1)= 1.923E-05  nbox=  7
     iter. #   698  RMS(g-h-1)= 1.910E-05  nbox=  8
     iter. #   699  RMS(g-h-1)= 1.898E-05  nbox=  9
     iter. #   700  RMS(g-h-1)= 1.889E-05  nbox= 10
     iter. #   701  RMS(g-h-1)= 1.880E-05  nbox= 11
     iter. #   702  RMS(g-h-1)= 1.869E-05  nbox= 12
     iter. #   703  RMS(g-h-1)= 1.861E-05  nbox= 13
     iter. #   704  RMS(g-h-1)= 1.854E-05  nbox= 14
     iter. #   705  RMS(g-h-1)= 1.846E-05  nbox= 15
     iter. #   706  RMS(g-h-1)= 1.835E-05  nbox= 16
     iter. #   707  RMS(g-h-1)= 1.822E-05  nbox= 17
     iter. #   708  RMS(g-h-1)= 1.820E-05  nbox=  2
     iter. #   709  RMS(g-h-1)= 1.808E-05  nbox=  3
     iter. #   710  RMS(g-h-1)= 1.796E-05  nbox=  4
     iter. #   711  RMS(g-h-1)= 1.786E-05  nbox=  5
     iter. #   712  RMS(g-h-1)= 1.775E-05  nbox=  6
     iter. #   713  RMS(g-h-1)= 1.770E-05  nbox=  7
     iter. #   714  RMS(g-h-1)= 1.758E-05  nbox=  8
     iter. #   715  RMS(g-h-1)= 1.746E-05  nbox=  9
     iter. #   716  RMS(g-h-1)= 1.732E-05  nbox= 10
     iter. #   717  RMS(g-h-1)= 1.718E-05  nbox= 11
     iter. #   718  RMS(g-h-1)= 1.704E-05  nbox= 12
     iter. #   719  RMS(g-h-1)= 1.690E-05  nbox= 13
     iter. #   720  RMS(g-h-1)= 1.680E-05  nbox= 14
     iter. #   721  RMS(g-h-1)= 1.667E-05  nbox= 15
     iter. #   722  RMS(g-h-1)= 1.649E-05  nbox= 16
     iter. #   723  RMS(g-h-1)= 1.626E-05  nbox= 17
     iter. #   724  RMS(g-h-1)= 1.623E-05  nbox=  2
     iter. #   725  RMS(g-h-1)= 1.602E-05  nbox=  3
     iter. #   726  RMS(g-h-1)= 1.577E-05  nbox=  4
     iter. #   727  RMS(g-h-1)= 1.568E-05  nbox=  5
     iter. #   728  RMS(g-h-1)= 1.547E-05  nbox=  6
     iter. #   729  RMS(g-h-1)= 1.527E-05  nbox=  7
     iter. #   730  RMS(g-h-1)= 1.505E-05  nbox=  8
     iter. #   731  RMS(g-h-1)= 1.479E-05  nbox=  9
     iter. #   732  RMS(g-h-1)= 1.455E-05  nbox= 10
     iter. #   733  RMS(g-h-1)= 1.432E-05  nbox= 11
     iter. #   734  RMS(g-h-1)= 1.408E-05  nbox= 12
     iter. #   735  RMS(g-h-1)= 1.394E-05  nbox= 13
     iter. #   736  RMS(g-h-1)= 1.378E-05  nbox= 14
     iter. #   737  RMS(g-h-1)= 1.357E-05  nbox= 15
     iter. #   738  RMS(g-h-1)= 1.335E-05  nbox= 16
     iter. #   739  RMS(g-h-1)= 1.310E-05  nbox= 17
     iter. #   740  RMS(g-h-1)= 1.306E-05  nbox=  2
     iter. #   741  RMS(g-h-1)= 1.280E-05  nbox=  3
     iter. #   742  RMS(g-h-1)= 1.255E-05  nbox=  4
     iter. #   743  RMS(g-h-1)= 1.241E-05  nbox=  5
     iter. #   744  RMS(g-h-1)= 1.223E-05  nbox=  6
     iter. #   745  RMS(g-h-1)= 1.206E-05  nbox=  7
     iter. #   746  RMS(g-h-1)= 1.184E-05  nbox=  8
     iter. #   747  RMS(g-h-1)= 1.165E-05  nbox=  9
     iter. #   748  RMS(g-h-1)= 1.149E-05  nbox= 10
     iter. #   749  RMS(g-h-1)= 1.135E-05  nbox= 11
     iter. #   750  RMS(g-h-1)= 1.119E-05  nbox= 12
     iter. #   751  RMS(g-h-1)= 1.104E-05  nbox= 13
     iter. #   752  RMS(g-h-1)= 1.095E-05  nbox= 14
     iter. #   753  RMS(g-h-1)= 1.082E-05  nbox= 15
     iter. #   754  RMS(g-h-1)= 1.066E-05  nbox= 16
     iter. #   755  RMS(g-h-1)= 1.049E-05  nbox= 17
     iter. #   756  RMS(g-h-1)= 1.045E-05  nbox=  2
     iter. #   757  RMS(g-h-1)= 1.025E-05  nbox=  3
     iter. #   758  RMS(g-h-1)= 1.009E-05  nbox=  4
     iter. #   759  RMS(g-h-1)= 9.971E-06  nbox=  5
     iter. #   760  RMS(g-h-1)= 9.827E-06  nbox=  6
     iter. #   761  RMS(g-h-1)= 9.776E-06  nbox=  7
     iter. #   762  RMS(g-h-1)= 9.615E-06  nbox=  8
     iter. #   763  RMS(g-h-1)= 9.512E-06  nbox=  9
     iter. #   764  RMS(g-h-1)= 9.384E-06  nbox= 10
     iter. #   765  RMS(g-h-1)= 9.288E-06  nbox= 11
     iter. #   766  RMS(g-h-1)= 9.151E-06  nbox= 12
     iter. #   767  RMS(g-h-1)= 9.167E-06  nbox= 13
     iter. #   768  RMS(g-h-1)= 9.025E-06  nbox= 14
     iter. #   769  RMS(g-h-1)= 8.943E-06  nbox= 15
     iter. #   770  RMS(g-h-1)= 8.835E-06  nbox= 16
     iter. #   771  RMS(g-h-1)= 8.737E-06  nbox= 17
     iter. #   772  RMS(g-h-1)= 8.719E-06  nbox=  2
     iter. #   773  RMS(g-h-1)= 8.621E-06  nbox=  3
     iter. #   774  RMS(g-h-1)= 8.521E-06  nbox=  4
     iter. #   775  RMS(g-h-1)= 8.443E-06  nbox=  5
     iter. #   776  RMS(g-h-1)= 8.335E-06  nbox=  6
     iter. #   777  RMS(g-h-1)= 8.320E-06  nbox=  7
     iter. #   778  RMS(g-h-1)= 8.227E-06  nbox=  8
     iter. #   779  RMS(g-h-1)= 8.141E-06  nbox=  9
     iter. #   780  RMS(g-h-1)= 8.062E-06  nbox= 10
     iter. #   781  RMS(g-h-1)= 7.986E-06  nbox= 11
     iter. #   782  RMS(g-h-1)= 7.906E-06  nbox= 12
     iter. #   783  RMS(g-h-1)= 7.845E-06  nbox= 13
     iter. #   784  RMS(g-h-1)= 7.783E-06  nbox= 14
     iter. #   785  RMS(g-h-1)= 7.718E-06  nbox= 15
     iter. #   786  RMS(g-h-1)= 7.634E-06  nbox= 16
     iter. #   787  RMS(g-h-1)= 7.547E-06  nbox= 17
     iter. #   788  RMS(g-h-1)= 7.538E-06  nbox=  2
     iter. #   789  RMS(g-h-1)= 7.455E-06  nbox=  3
     iter. #   790  RMS(g-h-1)= 7.385E-06  nbox=  4
     iter. #   791  RMS(g-h-1)= 7.326E-06  nbox=  5
     iter. #   792  RMS(g-h-1)= 7.243E-06  nbox=  6
     iter. #   793  RMS(g-h-1)= 7.256E-06  nbox=  7
     iter. #   794  RMS(g-h-1)= 7.157E-06  nbox=  8
     iter. #   795  RMS(g-h-1)= 7.100E-06  nbox=  9
     iter. #   796  RMS(g-h-1)= 7.030E-06  nbox= 10
     iter. #   797  RMS(g-h-1)= 6.979E-06  nbox= 11
     iter. #   798  RMS(g-h-1)= 6.920E-06  nbox= 12
     iter. #   799  RMS(g-h-1)= 6.956E-06  nbox= 13
     iter. #   800  RMS(g-h-1)= 6.818E-06  nbox= 14
     iter. #   801  RMS(g-h-1)= 6.805E-06  nbox= 15
     iter. #   802  RMS(g-h-1)= 6.743E-06  nbox= 16
     iter. #   803  RMS(g-h-1)= 6.695E-06  nbox= 17
     iter. #   804  RMS(g-h-1)= 6.683E-06  nbox=  2
     iter. #   805  RMS(g-h-1)= 6.626E-06  nbox=  3
     iter. #   806  RMS(g-h-1)= 6.581E-06  nbox=  4
     iter. #   807  RMS(g-h-1)= 6.552E-06  nbox=  5
     iter. #   808  RMS(g-h-1)= 6.501E-06  nbox=  6
     iter. #   809  RMS(g-h-1)= 6.521E-06  nbox=  7
     iter. #   810  RMS(g-h-1)= 6.438E-06  nbox=  8
     iter. #   811  RMS(g-h-1)= 6.412E-06  nbox=  9
     iter. #   812  RMS(g-h-1)= 6.374E-06  nbox= 10
     iter. #   813  RMS(g-h-1)= 6.351E-06  nbox= 11
     iter. #   814  RMS(g-h-1)= 6.315E-06  nbox= 12
     iter. #   815  RMS(g-h-1)= 6.338E-06  nbox= 13
     iter. #   816  RMS(g-h-1)= 6.276E-06  nbox= 14

     End of Laue-RISM calculation


     convergence has been achieved in   816 iterations


     solvent charge    0.00332, renormalised to    0.00000

     Total number of solvent (in expand-cell)
     H2O           97.471971
     K+             1.612849
     OH-            1.611095

     Total charge of solvent (in expand-cell)
     H2O            0.000108 e
     K+             1.612849 e
     OH-           -1.609636 e
     Total          0.003320 e

     Chemical potential of solvation (in expand-cell)
     H2O        GaussFluct   0.134127E+01 kcal/mol
     K+         GaussFluct   0.186523E+01 kcal/mol
     OH-        GaussFluct  -0.124759E+01 kcal/mol
     Total      GaussFluct   0.195891E+01 kcal/mol

     Starting wfc are  332 randomized atomic wfcs
     Checking if some PAW data can be deallocated... 
       node    0, deallocated PAW data for type:  2
       node    0, deallocated PAW data for type:  3
       node    1, deallocated PAW data for type:  2
       node    1, deallocated PAW data for type:  3
       node    2, deallocated PAW data for type:  2
       node    2, deallocated PAW data for type:  3
       node    3, deallocated PAW data for type:  2
       node    3, deallocated PAW data for type:  3
       node    4, deallocated PAW data for type:  2
       node    4, deallocated PAW data for type:  3
       node    5, deallocated PAW data for type:  2
       node    5, deallocated PAW data for type:  3
       node    6, deallocated PAW data for type:  2
       node    6, deallocated PAW data for type:  3
       node    7, deallocated PAW data for type:  2
       node    7, deallocated PAW data for type:  3
       node    8, deallocated PAW data for type:  2
       node    8, deallocated PAW data for type:  3
       node    9, deallocated PAW data for type:  2
       node    9, deallocated PAW data for type:  3
       node   10, deallocated PAW data for type:  2
       node   10, deallocated PAW data for type:  3
       node   11, deallocated PAW data for type:  2
       node   11, deallocated PAW data for type:  3
       node   12, deallocated PAW data for type:  2
       node   12, deallocated PAW data for type:  3
       node   13, deallocated PAW data for type:  2
       node   13, deallocated PAW data for type:  3
       node   14, deallocated PAW data for type:  2
       node   14, deallocated PAW data for type:  3
       node   15, deallocated PAW data for type:  2
       node   15, deallocated PAW data for type:  3
       node   16, deallocated PAW data for type:  2
       node   16, deallocated PAW data for type:  3
       node   17, deallocated PAW data for type:  2
       node   17, deallocated PAW data for type:  3
       node   18, deallocated PAW data for type:  2
       node   18, deallocated PAW data for type:  3
       node   19, deallocated PAW data for type:  2
       node   19, deallocated PAW data for type:  3
       node   20, deallocated PAW data for type:  2
       node   20, deallocated PAW data for type:  3
       node   21, deallocated PAW data for type:  2
       node   21, deallocated PAW data for type:  3
       node   22, deallocated PAW data for type:  2
       node   22, deallocated PAW data for type:  3
       node   23, deallocated PAW data for type:  2
       node   23, deallocated PAW data for type:  3
       node   24, deallocated PAW data for type:  2
       node   24, deallocated PAW data for type:  3
       node   25, deallocated PAW data for type:  2
       node   25, deallocated PAW data for type:  3
       node   26, deallocated PAW data for type:  2
       node   26, deallocated PAW data for type:  3
       node   27, deallocated PAW data for type:  2
       node   27, deallocated PAW data for type:  3
       node   28, deallocated PAW data for type:  2
       node   28, deallocated PAW data for type:  3
       node   29, deallocated PAW data for type:  2
       node   29, deallocated PAW data for type:  3
       node   30, deallocated PAW data for type:  2
       node   30, deallocated PAW data for type:  3
       node   31, deallocated PAW data for type:  2
       node   31, deallocated PAW data for type:  3
       node   32, deallocated PAW data for type:  2
       node   32, deallocated PAW data for type:  3
       node   33, deallocated PAW data for type:  2
       node   33, deallocated PAW data for type:  3
       node   34, deallocated PAW data for type:  2
       node   34, deallocated PAW data for type:  3
       node   35, deallocated PAW data for type:  2
       node   35, deallocated PAW data for type:  3
       node   36, deallocated PAW data for type:  2
       node   36, deallocated PAW data for type:  3
       node   37, deallocated PAW data for type:  2
       node   37, deallocated PAW data for type:  3
       node   38, deallocated PAW data for type:  2
       node   38, deallocated PAW data for type:  3
[...]
     atom   19 type  1   force =    -0.00000531   -0.04918641   61.63479588
     atom   20 type  1   force =    -0.20854411   -0.12042670   65.56599655
     atom   21 type  1   force =     0.20854325   -0.12044947   65.56596824
     atom   22 type  1   force =     0.01664991   -0.00959196   62.69743505
     atom   23 type  1   force =    -0.00001654    0.24082042   65.56597463
     atom   24 type  1   force =    -0.01663696   -0.00960045   62.69747421
     atom   25 type  1   force =     0.04255792    0.02459336   61.63473962
     atom   26 type  1   force =    -0.04257741    0.02459551   61.63480181
     atom   27 type  1   force =     0.00001643    0.01923826   62.69745080
     atom   28 type  1   force =    -0.00000237   -0.00001332  203.68217730
     atom   29 type  1   force =    -0.59232724   -0.74672087  202.92812861
     atom   30 type  1   force =     0.59233003   -0.74673129  202.92808804
     atom   31 type  1   force =    -0.94283157   -0.13962471  202.92808194
     atom   32 type  1   force =     0.00001029   -0.00000400  203.62908642
     atom   33 type  1   force =     0.94283884   -0.13963442  202.92811137
     atom   34 type  1   force =    -0.35051564    0.88635401  202.92807378
     atom   35 type  1   force =     0.35050179    0.88635501  202.92812930
     atom   36 type  1   force =     0.00001784    0.00002742  204.42628799
     atom   37 type  2   force =     0.00002509    0.00001531   93.07238364
     atom   38 type  3   force =    -0.00003769   -0.00002469  164.49954278
     The local contribution  to forces
     atom    1 type  1   force =     0.00000331   -0.00003429  217.60684665
     atom    2 type  1   force =     0.02309050   -0.02530629  217.76107492
     atom    3 type  1   force =    -0.02309564   -0.02530471  217.76107062
     atom    4 type  1   force =    -0.01034017    0.03263508  217.76109129
     atom    5 type  1   force =    -0.00000127    0.00000175  217.72432790
     atom    6 type  1   force =     0.01034000    0.03263889  217.76109621
     atom    7 type  1   force =    -0.03343135   -0.00733596  217.76108088
     atom    8 type  1   force =     0.03343341   -0.00733280  217.76109186
     atom    9 type  1   force =    -0.00000433    0.00002863  217.84860892
     atom   10 type  1   force =     0.02228096    0.01287919   77.50408383
     atom   11 type  1   force =    -0.00000757   -0.16386065   77.20008420
     atom   12 type  1   force =    -0.02227236    0.01289906   77.50409133
     atom   13 type  1   force =    -0.14192552    0.08194347   77.20009469
     atom   14 type  1   force =     0.14193793    0.08196136   77.20008404
     atom   15 type  1   force =    -0.00001249    0.09692331   77.81460620
     atom   16 type  1   force =     0.00002325   -0.02575712   77.50405021
     atom   17 type  1   force =     0.08392170   -0.04849578   77.81454567
     atom   18 type  1   force =    -0.08394379   -0.04849205   77.81455806
     atom   19 type  1   force =     0.00000550    0.04424775  -61.65934679
     atom   20 type  1   force =     0.22149316    0.12790254  -65.56945747
     atom   21 type  1   force =    -0.22149258    0.12792519  -65.56942929
     atom   22 type  1   force =    -0.02466707    0.01422079  -62.72585026
     atom   23 type  1   force =     0.00001624   -0.25577273  -65.56943554
     atom   24 type  1   force =     0.02465434    0.01422938  -62.72588959
     atom   25 type  1   force =    -0.03828128   -0.02212409  -61.65929051
     atom   26 type  1   force =     0.03830072   -0.02212597  -61.65935286
     atom   27 type  1   force =    -0.00001645   -0.02849551  -62.72586627
     atom   28 type  1   force =     0.00000192    0.00001329 -203.71124444
     atom   29 type  1   force =     0.57301400    0.71482718 -203.00861867
     atom   30 type  1   force =    -0.57301634    0.71483744 -203.00857691
     atom   31 type  1   force =     0.90555407    0.13884608 -203.00857067
     atom   32 type  1   force =    -0.00001036    0.00000411 -203.66399479
     atom   33 type  1   force =    -0.90556142    0.13885531 -203.00859999
     atom   34 type  1   force =     0.33255140   -0.85368123 -203.00856188
     atom   35 type  1   force =    -0.33253792   -0.85368255 -203.00861838
     atom   36 type  1   force =    -0.00001744   -0.00002761 -204.45628977
     atom   37 type  2   force =    -0.00002182   -0.00001300  -93.97773623
     atom   38 type  3   force =     0.00002800    0.00001851 -161.69933612
     The core correction contribution to forces
     atom    1 type  1   force =     0.00000000   -0.00000008    0.01935886
     atom    2 type  1   force =    -0.00023113    0.00003463    0.01940300
     atom    3 type  1   force =     0.00023111    0.00003462    0.01940299
     atom    4 type  1   force =    -0.00008551   -0.00021752    0.01940303
     atom    5 type  1   force =    -0.00000001   -0.00000001    0.01894977
     atom    6 type  1   force =     0.00008551   -0.00021752    0.01940305
     atom    7 type  1   force =     0.00014561    0.00018287    0.01940301
     atom    8 type  1   force =    -0.00014561    0.00018289    0.01940302
     atom    9 type  1   force =     0.00000000    0.00000007    0.01977857
     atom   10 type  1   force =     0.00024726    0.00014280    0.00010339
     atom   11 type  1   force =    -0.00000001   -0.00063325   -0.00036917
     atom   12 type  1   force =    -0.00024725    0.00014283    0.00010338
     atom   13 type  1   force =    -0.00054846    0.00031665   -0.00036916
     atom   14 type  1   force =     0.00054847    0.00031667   -0.00036914
     atom   15 type  1   force =    -0.00000002    0.00028515    0.00066122
     atom   16 type  1   force =     0.00000005   -0.00028557    0.00010341
     atom   17 type  1   force =     0.00024694   -0.00014265    0.00066123
     atom   18 type  1   force =    -0.00024698   -0.00014264    0.00066123
     atom   19 type  1   force =     0.00000003   -0.00035687   -0.00018712
     atom   20 type  1   force =     0.00156818    0.00090541    0.00096197
     atom   21 type  1   force =    -0.00156818    0.00090546    0.00096199
     atom   22 type  1   force =     0.00008954   -0.00005171    0.00046857
     atom   23 type  1   force =     0.00000002   -0.00181080    0.00096198
     atom   24 type  1   force =    -0.00008955   -0.00005170    0.00046858
     atom   25 type  1   force =     0.00030910    0.00017842   -0.00018716
     atom   26 type  1   force =    -0.00030906    0.00017845   -0.00018716
     atom   27 type  1   force =    -0.00000002    0.00010338    0.00046856
     atom   28 type  1   force =    -0.00000001    0.00000003   -0.01961313
     atom   29 type  1   force =    -0.00089396   -0.00172144   -0.02007163
     atom   30 type  1   force =     0.00089398   -0.00172140   -0.02007160
     atom   31 type  1   force =    -0.00193781    0.00008655   -0.02007165
     atom   32 type  1   force =    -0.00000009   -0.00000005    0.02392826
     atom   33 type  1   force =     0.00193777    0.00008655   -0.02007164
     atom   34 type  1   force =    -0.00104380    0.00163489   -0.02007161
     atom   35 type  1   force =     0.00104383    0.00163486   -0.02007163
     atom   36 type  1   force =    -0.00000004   -0.00000004   -0.02024424
     atom   37 type  2   force =     0.00000009    0.00000006   -0.01669209
     atom   38 type  3   force =    -0.00000008   -0.00000005    0.02223467
     The Hubbard contrib.    to forces
     atom    1 type  1   force =     0.00000000    0.00000000    0.00000000
     atom    2 type  1   force =     0.00000000    0.00000000    0.00000000
     atom    3 type  1   force =     0.00000000    0.00000000    0.00000000
     atom    4 type  1   force =     0.00000000    0.00000000    0.00000000
     atom    5 type  1   force =     0.00000000    0.00000000    0.00000000
     atom    6 type  1   force =     0.00000000    0.00000000    0.00000000
     atom    7 type  1   force =     0.00000000    0.00000000    0.00000000
     atom    8 type  1   force =     0.00000000    0.00000000    0.00000000
     atom    9 type  1   force =     0.00000000    0.00000000    0.00000000
     atom   10 type  1   force =     0.00000000    0.00000000    0.00000000
     atom   11 type  1   force =     0.00000000    0.00000000    0.00000000
     atom   12 type  1   force =     0.00000000    0.00000000    0.00000000
     atom   13 type  1   force =     0.00000000    0.00000000    0.00000000
     atom   14 type  1   force =     0.00000000    0.00000000    0.00000000
     atom   15 type  1   force =     0.00000000    0.00000000    0.00000000
     atom   16 type  1   force =     0.00000000    0.00000000    0.00000000
     atom   17 type  1   force =     0.00000000    0.00000000    0.00000000
     atom   18 type  1   force =     0.00000000    0.00000000    0.00000000
     atom   19 type  1   force =     0.00000000    0.00000000    0.00000000
     atom   20 type  1   force =     0.00000000    0.00000000    0.00000000
     atom   21 type  1   force =     0.00000000    0.00000000    0.00000000
     atom   22 type  1   force =     0.00000000    0.00000000    0.00000000
     atom   23 type  1   force =     0.00000000    0.00000000    0.00000000
     atom   24 type  1   force =     0.00000000    0.00000000    0.00000000
     atom   25 type  1   force =     0.00000000    0.00000000    0.00000000
     atom   26 type  1   force =     0.00000000    0.00000000    0.00000000
     atom   27 type  1   force =     0.00000000    0.00000000    0.00000000
     atom   28 type  1   force =     0.00000000    0.00000000    0.00000000
     atom   29 type  1   force =     0.00000000    0.00000000    0.00000000
     atom   30 type  1   force =     0.00000000    0.00000000    0.00000000
     atom   31 type  1   force =     0.00000000    0.00000000    0.00000000
     atom   32 type  1   force =     0.00000000    0.00000000    0.00000000
     atom   33 type  1   force =     0.00000000    0.00000000    0.00000000
     atom   34 type  1   force =     0.00000000    0.00000000    0.00000000
     atom   35 type  1   force =     0.00000000    0.00000000    0.00000000
     atom   36 type  1   force =     0.00000000    0.00000000    0.00000000
     atom   37 type  2   force =     0.00000000    0.00000000    0.00000000
     atom   38 type  3   force =     0.00000000    0.00000000    0.00000000
     The SCF correction term to forces
     atom    1 type  1   force =     0.00000000    0.00000000    0.00000000
     atom    2 type  1   force =     0.00000000    0.00000000    0.00000000
     atom    3 type  1   force =     0.00000000    0.00000000    0.00000000
     atom    4 type  1   force =     0.00000000    0.00000000    0.00000000
     atom    5 type  1   force =     0.00000000    0.00000000    0.00000000
     atom    6 type  1   force =     0.00000000    0.00000000    0.00000000
     atom    7 type  1   force =     0.00000000    0.00000000    0.00000000
     atom    8 type  1   force =     0.00000000    0.00000000    0.00000000
     atom    9 type  1   force =     0.00000000    0.00000000    0.00000000
     atom   10 type  1   force =    -0.00000031    0.00000000    0.00000135
     atom   11 type  1   force =     0.00000014    0.00000015    0.00000120
     atom   12 type  1   force =     0.00000025    0.00000001    0.00000147
     atom   13 type  1   force =     0.00000009    0.00000031    0.00000124
     atom   14 type  1   force =     0.00000004    0.00000020    0.00000138
     atom   15 type  1   force =    -0.00000012   -0.00000010    0.00000119
     atom   16 type  1   force =    -0.00000008   -0.00000009    0.00000145
     atom   17 type  1   force =    -0.00000030   -0.00000029    0.00000118
     atom   18 type  1   force =     0.00000032   -0.00000014    0.00000108
     atom   19 type  1   force =    -0.00000021   -0.00000014    0.00000186
     atom   20 type  1   force =    -0.00000017    0.00000024    0.00000196
     atom   21 type  1   force =     0.00000040    0.00000024    0.00000194
     atom   22 type  1   force =     0.00000016   -0.00000011    0.00000190
     atom   23 type  1   force =     0.00000016    0.00000028    0.00000188
     atom   24 type  1   force =    -0.00000028   -0.00000024    0.00000198
     atom   25 type  1   force =     0.00000044    0.00000005    0.00000188
     atom   26 type  1   force =    -0.00000046   -0.00000021    0.00000193
     atom   27 type  1   force =     0.00000006   -0.00000012    0.00000195
     atom   28 type  1   force =    -0.00000015   -0.00000009    0.00000036
     atom   29 type  1   force =    -0.00000031   -0.00000014    0.00000030
     atom   30 type  1   force =     0.00000044   -0.00000008    0.00000037
     atom   31 type  1   force =    -0.00000033   -0.00000007    0.00000024
     atom   32 type  1   force =     0.00000025    0.00000028    0.00000000
     atom   33 type  1   force =     0.00000015   -0.00000007    0.00000019
     atom   34 type  1   force =     0.00000018    0.00000023    0.00000020
     atom   35 type  1   force =    -0.00000017    0.00000002    0.00000009
     atom   36 type  1   force =    -0.00000004   -0.00000021    0.00000051
     atom   37 type  2   force =     0.00000003    0.00000002    0.00000006
     atom   38 type  3   force =     0.00000002    0.00000001   -0.00000040

     3D-RISM Solvation contribution to forces:
     atom    1 type  1   force =     0.00000001    0.00000000    0.00000236
     atom    2 type  1   force =     0.00001416    0.00002747    0.00003118
     atom    3 type  1   force =    -0.00001416    0.00002749    0.00003117
     atom    4 type  1   force =     0.00003087   -0.00000147    0.00003117
     atom    5 type  1   force =     0.00000004    0.00000002    0.00009225
     atom    6 type  1   force =    -0.00003088   -0.00000145    0.00003126
     atom    7 type  1   force =     0.00001673   -0.00002600    0.00003117
     atom    8 type  1   force =    -0.00001670   -0.00002602    0.00003126
     atom    9 type  1   force =    -0.00000003   -0.00000002   -0.00000267
     atom   10 type  1   force =     0.00016603    0.00009585    0.00002821
     atom   11 type  1   force =     0.00000002    0.00023436    0.00034521
     atom   12 type  1   force =    -0.00016597    0.00009593    0.00002822
     atom   13 type  1   force =     0.00020298   -0.00011716    0.00034520
     atom   14 type  1   force =    -0.00020285   -0.00011712    0.00034523
     atom   15 type  1   force =    -0.00000007   -0.00005993   -0.00007191
     atom   16 type  1   force =     0.00000010   -0.00019170    0.00002822
     atom   17 type  1   force =    -0.00005193    0.00002991   -0.00007189
     atom   18 type  1   force =     0.00005186    0.00002995   -0.00007192
     atom   19 type  1   force =     0.00000010    0.00031779   -0.00060251
     atom   20 type  1   force =     0.00123590    0.00071348    0.00232168
     atom   21 type  1   force =    -0.00123582    0.00071361    0.00232169
     atom   22 type  1   force =     0.00134678   -0.00077760   -0.00013777
     atom   23 type  1   force =     0.00000015   -0.00142704    0.00232167
     atom   24 type  1   force =    -0.00134679   -0.00077752   -0.00013755
     atom   25 type  1   force =    -0.00027509   -0.00015881   -0.00060266
     atom   26 type  1   force =     0.00027532   -0.00015883   -0.00060242
     atom   27 type  1   force =    -0.00000007    0.00155518   -0.00013766
     atom   28 type  1   force =     0.00000049    0.00000010   -0.01892229
     atom   29 type  1   force =     0.00613296    0.01172047    0.00356063
     atom   30 type  1   force =    -0.00613343    0.01172094    0.00355993
     atom   31 type  1   force =     0.01321699   -0.00054931    0.00355986
     atom   32 type  1   force =     0.00000034    0.00000002    0.01145938
     atom   33 type  1   force =    -0.01321733   -0.00054882    0.00356013
     atom   34 type  1   force =     0.00708412   -0.01117190    0.00355950
     atom   35 type  1   force =    -0.00708370   -0.01117179    0.00356047
     atom   36 type  1   force =    -0.00000044    0.00000031   -0.02083917
     atom   37 type  2   force =     0.00000015   -0.00000012   -0.01868849
     atom   38 type  3   force =     0.00000021   -0.00000013   -0.07807804

     Total force =     0.055274     Total SCF correction =     0.000007

     Total 3D-RISM Solvation Force =     0.092340

     Writing output data file Cu-vib.save
 
     init_run     :    365.03s CPU    185.19s WALL (       1 calls)
     electrons    :   6626.31s CPU   3372.63s WALL (       1 calls)
     forces       :     26.80s CPU     13.32s WALL (       1 calls)

     Called by init_run:
     wfcinit      :     58.25s CPU     30.26s WALL (       1 calls)
     wfcinit:atom :      0.02s CPU      0.02s WALL (      34 calls)
     wfcinit:wfcr :     57.92s CPU     29.93s WALL (      34 calls)
     potinit      :    298.14s CPU    150.25s WALL (       1 calls)

     Called by electrons:
     c_bands      :   3930.25s CPU   2011.90s WALL (      33 calls)
     sum_band     :    532.26s CPU    273.31s WALL (      33 calls)
     v_of_rho     :     43.48s CPU     21.51s WALL (      33 calls)
     v_h          :      2.49s CPU      0.52s WALL (      66 calls)
     v_xc         :     41.86s CPU     21.86s WALL (      34 calls)
     newd         :      1.20s CPU      1.20s WALL (      33 calls)
     PAW_pot      :      2.68s CPU      2.70s WALL (      33 calls)
     mix_rho      :      0.55s CPU      0.55s WALL (      33 calls)

     Called by c_bands:
     init_us_2    :      3.54s CPU      1.49s WALL (    2312 calls)
     crmmdiagg    :   2637.89s CPU   1299.48s WALL (    1122 calls)
     wfcrot       :   1283.95s CPU    700.48s WALL (    1088 calls)
     gsorth       :     62.26s CPU     39.40s WALL (    1122 calls)

     Called by sum_band:
     sum_band:bec :      1.20s CPU      1.21s WALL (    1122 calls)
     addusdens    :      3.24s CPU      1.19s WALL (      33 calls)

     Called by *rmmdiagg:
     h_psi        :   3557.03s CPU   1790.10s WALL (    9565 calls)
     s_psi        :     44.72s CPU     26.82s WALL (    9565 calls)
     cdiaghg      :    129.11s CPU     79.36s WALL (    1088 calls)
     cdiaghg:chol :      5.28s CPU      2.75s WALL (    1088 calls)
     cdiaghg:inve :      4.86s CPU      1.78s WALL (    1088 calls)
     cdiaghg:para :      1.99s CPU      1.71s WALL (    2176 calls)

     Called by h_psi:
     h_psi:pot    :   3555.59s CPU   1788.72s WALL (    9565 calls)
     h_psi:calbec :    113.63s CPU     66.90s WALL (    9565 calls)
     vloc_psi     :   3387.75s CPU   1694.10s WALL (    9565 calls)
     add_vuspsi   :     54.02s CPU     27.56s WALL (    9565 calls)

     General routines
     calbec       :    146.64s CPU     85.87s WALL (   10823 calls)
     fft          :     29.25s CPU     15.47s WALL (    2339 calls)
     ffts         :      1.18s CPU      0.15s WALL (      66 calls)
     fftw         :   3819.46s CPU   1903.90s WALL ( 1958302 calls)
     fftc         :      0.16s CPU      0.15s WALL (      66 calls)
     interpolate  :      1.61s CPU      0.58s WALL (      66 calls)
 
     Parallel routines
     fft_scatter  :   2469.52s CPU   1434.23s WALL ( 2042982 calls)

     PAW routines
     PAW_pot      :      2.68s CPU      2.70s WALL (      33 calls)

     RISM routines
     1DRISM_pre   :     28.42s CPU     14.29s WALL (       1 calls)
     1DRISM_run   :      0.21s CPU      1.17s WALL (       1 calls)
     3DRISM_pre   :     10.63s CPU      6.28s WALL (       1 calls)
     3DRISM_run   :   2396.89s CPU   1202.88s WALL (      33 calls)
     3DRISM_for   :      6.01s CPU      2.89s WALL (       1 calls)
     3DRISM_vsol  :      1.26s CPU      0.21s WALL (      33 calls)
 
     PWSCF        :     1h59m CPU        1h 1m WALL

 
   This run was terminated on:   4:42: 8  11Feb2026            

=------------------------------------------------------------------------------=
   JOB DONE.
=------------------------------------------------------------------------------=
