
     Program PWSCF v.6.1 starts on  9Nov2025 at 13: 7: 1 

     This program is part of the open-source Quantum ESPRESSO suite
     for quantum simulation of materials; please cite
         "P. Giannozzi et al., J. Phys.:Condens. Matter 21 395502 (2009);
          URL http://www.quantum-espresso.org", 
     in publications or presentations arising from this work. More details at
     http://www.quantum-espresso.org/quote

     Parallel version (MPI & OpenMP), running on     480 processor cores
     Number of MPI processes:               240
     Threads/MPI process:                     2
     R & G space division:  proc/nbgrp/npool/nimage =     240
     Reading input from espresso.pwi

     Current dimensions of program PWSCF are:
     Max number of different atomic species (ntypx) = 10
     Max number of k-points (npk) =  40000
     Max angular momentum in pseudopotentials (lmaxx) =  3

     IMPORTANT: XC functional enforced from input :
     Exchange-correlation      = VDW-DF2 ( 1  4 13  0 2 0)
     Any further DFT definition will be discarded
     Please, verify this is what you really want

               file Cu.pbe-dn-kjpaw_psl.1.0.0.UPF: wavefunction(s)  4S 3D renormalized
               file C.pbe-n-kjpaw_psl.1.0.0.UPF: wavefunction(s)  2S 2P renormalized
               file O.pbe-n-kjpaw_psl.1.0.0.UPF: wavefunction(s)  2S 2P renormalized
     Message from routine iosys_1drism:
     default density from MOL file(H2O.tip5p.MOL) is used

     Subspace diagonalization in iterative solution of the eigenvalue problem:
     one sub-group per band group will be used
     ELPA distributed-memory algorithm (size of sub-group: 10* 10 procs)


     Molecule # 1 for H2O read from file:
     /work/gf93/f93007/QE/pseudo/H2O.tip5p.MOL
     Density:
         0.72794769E+02 cell^-1
         0.49533750E-02 bohr^-3
         0.55506881E+02 mol/L
         0.99997200E+00 g/cm^3
     Permittivity:
        78.355300
     Number of atoms:   5
     Atoms:
       #  atom      X (angs)      Y (angs)      Z (angs)      Q (e)         E (kcal/mol)  S (angs)
       1  O/h2o     0.00000000    0.00000000    0.00000000    0.00000000    0.16000000    3.12000000
       2  H/h2o     0.75695000    0.58588000    0.00000000    0.24100000    0.04600000    1.00000000
       3  H/h2o    -0.75695000    0.58588000    0.00000000    0.24100000    0.04600000    1.00000000
       4  L/h2o     0.00000000   -0.40415000    0.57154000   -0.24100000    0.04600000    1.80000000
       5  L/h2o     0.00000000   -0.40415000   -0.57154000   -0.24100000    0.04600000    1.80000000


     Molecule # 2 for K+ read from file:
     /work/gf93/f93007/QE/pseudo/K+.oplsaa.MOL
     Density:
         0.13114549E+01 cell^-1
         0.89238936E-04 bohr^-3
         0.10000000E+01 mol/L
         0.39098300E-01 g/cm^3
     Number of atoms:   1
     Atoms:
       #  atom      X (angs)      Y (angs)      Z (angs)      Q (e)         E (kcal/mol)  S (angs)
       1  K         0.00000000    0.00000000    0.00000000    1.00000000    0.00032800    4.93462800


     Molecule # 3 for OH- read from file:
     /work/gf93/f93007/QE/pseudo/OH-.oplsaa.MOL
     Density:
         0.13114549E+01 cell^-1
         0.89238936E-04 bohr^-3
         0.10000000E+01 mol/L
         0.17007340E-01 g/cm^3
     Number of atoms:   2
     Atoms:
       #  atom      X (angs)      Y (angs)      Z (angs)      Q (e)         E (kcal/mol)  S (angs)
       1  O/oh      0.00000000    0.00000000    0.00000000   -1.30000000    0.25000000    3.20000000
       2  H/oh      0.95300000    0.00000000    0.00000000    0.30000000    0.04600000    1.00000000


     Number of total sites:   8
     Index site -> solvent: 
       1  1  1  1  1  2  3  3
     Index site -> atom (in a solvent): 
       1  2  3  4  5  1  1  2


     Number of unique sites:   6
     Multiplicity of unique site: 
       1  2  2  1  1  1
     Index unique site -> site: 
       1:  1
       2:  2  3
       3:  4  5
       4:  6
       5:  7
       6:  8


     1D-RISM info
     ------------
     closure equation        =           KH
     temperature             =     300.0000  kelvin
     coulomb smearing radius =       2.0000  bohr
     number of solvent sites =            8
     nv * (nv + 1) / 2       =           36
     number of grids         =         8345
     maximum of R-space      =     999.8802  bohr
     maximum of G-space      =      26.2150  bohr^-1
     #R-grids in local       =           66
     #G-grids in local       =           66
     number of iterations    =       100000
     convergence threshold   =      1.0E-08
     Gaussian width of bonds =       0.2530  bohr
     size of MDIIS           =           20
     step of MDIIS           =       0.1000
     number of processes     =          128


     Radial FFT:
     number of radial grids   =         8345
     number of FFT grids      =        16689
     good number of FFT grids =           -1
     R-space grids:
       0.00000000E+00  0.11983223E+00  0.23966447E+00  0.35949670E+00  0.47932894E+00
       0.59916117E+00  0.71899341E+00  0.83882564E+00  0.95865788E+00  0.10784901E+01
       ..............  ..............  ..............  ..............  ..............
       0.99880168E+03  0.99892151E+03  0.99904134E+03  0.99916117E+03  0.99928101E+03
       0.99940084E+03  0.99952067E+03  0.99964050E+03  0.99976034E+03  0.99988017E+03
     G-space grids:
       0.00000000E+00  0.31417809E-02  0.62835618E-02  0.94253427E-02  0.12567124E-01
       0.15708904E-01  0.18850685E-01  0.21992466E-01  0.25134247E-01  0.28276028E-01
       ..............  ..............  ..............  ..............  ..............
       0.26186744E+02  0.26189886E+02  0.26193027E+02  0.26196169E+02  0.26199311E+02
       0.26202453E+02  0.26205594E+02  0.26208736E+02  0.26211878E+02  0.26215020E+02


     MPI for site:
     number of site groups     =          128
     #procs in a site group    =            1
     this proc in a site group =            0
     the root in a site group  =            0
     this site group           =            0
     inter-site group comm.    =           20
     intra-site group comm.    =            2
     total number of sites     =           36
     starting index of sites   =            1
     ending index of sites     =            1


     MPI for task:
     #procs in a task group    =          128
     this proc in a task group =            0
     the root in a task group  =            0
     task group comm.          =           20
     total number of vectors   =         8345
     starting index of vectors =            1
     ending index of vectors   =           66
     lengths of vectors        = 
        66   66   66   66   66   66   66   66   66   66
        66   66   66   66   66   66   66   66   66   66
        66   66   66   66   66   65   65   65   65   65
        65   65   65   65   65   65   65   65   65   65
        65   65   65   65   65   65   65   65   65   65
        65   65   65   65   65   65   65   65   65   65
        65   65   65   65   65   65   65   65   65   65
        65   65   65   65   65   65   65   65   65   65
        65   65   65   65   65   65   65   65   65   65
        65   65   65   65   65   65   65   65   65   65
        65   65   65   65   65   65   65   65   65   65
        65   65   65   65   65   65   65   65   65   65
        65   65   65   65   65   65   65   65
     displacement of vectors   = 
         0   66  132  198  264  330  396  462  528  594
       660  726  792  858  924  990 1056 1122 1188 1254
      1320 1386 1452 1518 1584 1650 1715 1780 1845 1910
      1975 2040 2105 2170 2235 2300 2365 2430 2495 2560
      2625 2690 2755 2820 2885 2950 3015 3080 3145 3210
      3275 3340 3405 3470 3535 3600 3665 3730 3795 3860
      3925 3990 4055 4120 4185 4250 4315 4380 4445 4510
      4575 4640 4705 4770 4835 4900 4965 5030 5095 5160
      5225 5290 5355 5420 5485 5550 5615 5680 5745 5810
      5875 5940 6005 6070 6135 6200 6265 6330 6395 6460
      6525 6590 6655 6720 6785 6850 6915 6980 7045 7110
      7175 7240 7305 7370 7435 7500 7565 7630 7695 7760
      7825 7890 7955 8020 8085 8150 8215 8280


     Correlation function is read from file


     1D-RISM Calculation

     iter. #     1  RMS(g-h-1)= 9.995E-09  nbox=  0  T=  300.00K

     End of 1D-RISM calculation


     convergence has been achieved in     1 iterations


     Chemical potential of solvation

     H2O        H2O        Closure      0.106068E+01 kcal/mol
                           GaussFluct  -0.737993E+01 kcal/mol

                K+         Closure     -0.288345E+00 kcal/mol
                           GaussFluct  -0.358438E+00 kcal/mol

                OH-        Closure     -0.764259E+00 kcal/mol
                           GaussFluct  -0.855991E+00 kcal/mol

                Total      Closure      0.808077E-02 kcal/mol
                           GaussFluct  -0.859435E+01 kcal/mol

     K+         H2O        Closure     -0.160051E+02 kcal/mol
                           GaussFluct  -0.198958E+02 kcal/mol

                K+         Closure      0.351561E+06 kcal/mol
                           GaussFluct   0.351561E+06 kcal/mol

                OH-        Closure     -0.351612E+06 kcal/mol
                           GaussFluct  -0.351612E+06 kcal/mol

                Total      Closure     -0.668098E+02 kcal/mol
                           GaussFluct  -0.707592E+02 kcal/mol

     OH-        H2O        Closure     -0.424217E+02 kcal/mol
                           GaussFluct  -0.475134E+02 kcal/mol

                K+         Closure     -0.351612E+06 kcal/mol
                           GaussFluct  -0.351612E+06 kcal/mol

                OH-        Closure      0.351561E+06 kcal/mol
                           GaussFluct   0.351561E+06 kcal/mol

                Total      Closure     -0.934347E+02 kcal/mol
                           GaussFluct  -0.986502E+02 kcal/mol

 
     Parallelization info
     --------------------
     sticks:   dense  smooth     PW     G-vecs:    dense   smooth      PW
     Min          40      16      4                16136     4064     568
     Max          41      17      5                16171     4100     615
     Sum        9661    3865   1057              3875677   980529  140539
 

     Title: 
     Cu-vib                                                                     


     bravais-lattice index     =            0
     lattice parameter (alat)  =      14.9832  a.u.
     unit-cell volume          =   14695.9939 (a.u.)^3
     number of atoms/cell      =           38
     number of atomic types    =            3
     number of electrons       =       406.00
     number of Kohn-Sham states=          244
     kinetic-energy cutoff     =      62.4738  Ry
     charge density cutoff     =     624.7385  Ry
     convergence threshold     =      7.3E-12
     mixing beta               =       0.3333
     number of iterations used =           12  plain     mixing
     Exchange-correlation      = VDW-DF2 ( 1  4 13  0 2 0)

     Effective Screening Medium Method
     =================================
     Boundary Conditions: Vacuum-Slab-Vacuum
     total charge in unit cell        =   0.0000
     grid points for fit at edges     =        4 
 

     celldm(1)=  14.983209  celldm(2)=   0.000000  celldm(3)=   0.000000
     celldm(4)=   0.000000  celldm(5)=   0.000000  celldm(6)=   0.000000

     crystal axes: (cart. coord. in units of alat)
               a(1) = (   1.000000   0.000000   0.000000 )  
               a(2) = (   0.500000   0.866025   0.000000 )  
               a(3) = (   0.000000   0.000000   5.044917 )  

     reciprocal axes: (cart. coord. in units 2 pi/alat)
               b(1) = (  1.000000 -0.577351  0.000000 )  
               b(2) = (  0.000000  1.154701  0.000000 )  
               b(3) = (  0.000000  0.000000  0.198219 )  


     PseudoPot. # 1 for Cu read from file:
     /work/gf93/f93007/QE/pseudo/Cu.pbe-dn-kjpaw_psl.1.0.0.UPF
     MD5 check sum: 67c40f9e1593dc2d139023e70404cc2a
     Pseudo is Projector augmented-wave + core cor, Zval = 11.0
     Generated using "atomic" code by A. Dal Corso  v.6.1 svn rev. 13369
     Shape of augmentation charge: PSQ
     Using radial grid of 1199 points,  6 beta functions with: 
                l(1) =   0
                l(2) =   0
                l(3) =   1
                l(4) =   1
                l(5) =   2
                l(6) =   2
     Q(r) pseudized with 0 coefficients 


     PseudoPot. # 2 for  C read from file:
     /work/gf93/f93007/QE/pseudo/C.pbe-n-kjpaw_psl.1.0.0.UPF
     MD5 check sum: 92a742b3ac0ce1af44b5aa3f9352ca21
     Pseudo is Projector augmented-wave + core cor, Zval =  4.0
     Generated using "atomic" code by A. Dal Corso  v.6.1 svn rev. 13369
     Shape of augmentation charge: PSQ
     Using radial grid of 1073 points,  4 beta functions with: 
                l(1) =   0
                l(2) =   0
                l(3) =   1
                l(4) =   1
     Q(r) pseudized with 0 coefficients 


     PseudoPot. # 3 for  O read from file:
     /work/gf93/f93007/QE/pseudo/O.pbe-n-kjpaw_psl.1.0.0.UPF
     MD5 check sum: c61d840054b6bba219e553541e327118
     Pseudo is Projector augmented-wave + core cor, Zval =  6.0
     Generated using "atomic" code by A. Dal Corso  v.6.1 svn rev. 13369
     Shape of augmentation charge: PSQ
     Using radial grid of 1095 points,  4 beta functions with: 
                l(1) =   0
                l(2) =   0
                l(3) =   1
                l(4) =   1
     Q(r) pseudized with 0 coefficients 


     vdW kernel table read from file vdW_kernel_table
     MD5 check sum: 6d69797d2e858e93e031fb7d16d30e50

     atomic species   valence    mass     pseudopotential
        Cu            11.00    63.54600     Cu( 1.00)
        C              4.00    12.01100      C( 1.00)
        O              6.00    15.99900      O( 1.00)

     No symmetry found


                                    s                        frac. trans.

      isym =  1     identity                                     

 cryst.   s( 1) = (     1          0          0      )
                  (     0          1          0      )
                  (     0          0          1      )

 cart.    s( 1) = (  1.0000000  0.0000000  0.0000000 )
                  (  0.0000000  1.0000000  0.0000000 )
                  (  0.0000000  0.0000000  1.0000000 )


   Cartesian axes

     site n.     atom                  positions (alat units)
         1           Cu  tau(   1) = (   0.0000000   0.0000000  -0.8164966  )
         2           Cu  tau(   2) = (   0.3333333   0.0000000  -0.8164966  )
         3           Cu  tau(   3) = (   0.6666667   0.0000000  -0.8164966  )
         4           Cu  tau(   4) = (   0.1666667   0.2886751  -0.8164966  )
         5           Cu  tau(   5) = (   0.5000000   0.2886751  -0.8164966  )
         6           Cu  tau(   6) = (   0.8333333   0.2886751  -0.8164966  )
         7           Cu  tau(   7) = (   0.3333333   0.5773503  -0.8164966  )
         8           Cu  tau(   8) = (   0.6666667   0.5773503  -0.8164966  )
         9           Cu  tau(   9) = (   1.0000000   0.5773503  -0.8164966  )
        10           Cu  tau(  10) = (   0.1679520   0.0969672  -0.5466368  )
        11           Cu  tau(  11) = (   0.5000000   0.0963594  -0.5463017  )
        12           Cu  tau(  12) = (   0.8320482   0.0969670  -0.5466369  )
        13           Cu  tau(  13) = (   0.3334496   0.3848327  -0.5463017  )
        14           Cu  tau(  14) = (   0.6665504   0.3848326  -0.5463018  )
        15           Cu  tau(  15) = (   1.0000002   0.3851235  -0.5471167  )
        16           Cu  tau(  16) = (   0.5000000   0.6720915  -0.5466368  )
        17           Cu  tau(  17) = (   0.8335272   0.6734637  -0.5471166  )
        18           Cu  tau(  18) = (   1.1664730   0.6734637  -0.5471165  )
        19           Cu  tau(  19) = (   0.0000002   0.1919060  -0.2811485  )
        20           Cu  tau(  20) = (   0.3359860   0.1939813  -0.2727552  )
        21           Cu  tau(  21) = (   0.6640143   0.1939813  -0.2727553  )
        22           Cu  tau(  22) = (   0.1667937   0.4810520  -0.2788802  )
        23           Cu  tau(  23) = (   0.5000000   0.4780624  -0.2727553  )
        24           Cu  tau(  24) = (   0.8332067   0.4810520  -0.2788802  )
        25           Cu  tau(  25) = (   0.3338044   0.7700724  -0.2811487  )
        26           Cu  tau(  26) = (   0.6661958   0.7700725  -0.2811485  )
        27           Cu  tau(  27) = (   1.0000002   0.7699470  -0.2788801  )
        28           Cu  tau(  28) = (   0.0000000   0.0000002  -0.0123792  )
        29           Cu  tau(  29) = (   0.3317798  -0.0034598  -0.0114260  )
        30           Cu  tau(  30) = (   0.6682203  -0.0034598  -0.0114261  )
        31           Cu  tau(  31) = (   0.1628935   0.2890594  -0.0114258  )
        32           Cu  tau(  32) = (   0.5000000   0.2886750   0.0084134  )
        33           Cu  tau(  33) = (   0.8371065   0.2890593  -0.0114258  )
        34           Cu  tau(  34) = (   0.3311137   0.5804259  -0.0114259  )
        35           Cu  tau(  35) = (   0.6688862   0.5804258  -0.0114257  )
        36           Cu  tau(  36) = (   1.0000001   0.5773505  -0.0108012  )
        37           C   tau(  37) = (   0.4999994   0.2886748   0.2494119  )
        38           O   tau(  38) = (   0.4999989   0.2886745   0.3932410  )

   Crystallographic axes

     site n.     atom                  positions (cryst. coord.)
         1           Cu  tau(   1) = (  0.0000000  0.0000000 -0.1618454  )
         2           Cu  tau(   2) = (  0.3333333  0.0000000 -0.1618454  )
         3           Cu  tau(   3) = (  0.6666667  0.0000000 -0.1618454  )
         4           Cu  tau(   4) = ( -0.0000001  0.3333335 -0.1618454  )
         5           Cu  tau(   5) = (  0.3333333  0.3333335 -0.1618454  )
         6           Cu  tau(   6) = (  0.6666666  0.3333335 -0.1618454  )
         7           Cu  tau(   7) = ( -0.0000002  0.6666670 -0.1618454  )
         8           Cu  tau(   8) = (  0.3333332  0.6666670 -0.1618454  )
         9           Cu  tau(   9) = (  0.6666665  0.6666670 -0.1618454  )
        10           Cu  tau(  10) = (  0.1119680  0.1119681 -0.1083540  )
        11           Cu  tau(  11) = (  0.4443669  0.1112663 -0.1082875  )
        12           Cu  tau(  12) = (  0.7760642  0.1119679 -0.1083540  )
        13           Cu  tau(  13) = (  0.1112663  0.4443667 -0.1082876  )
        14           Cu  tau(  14) = (  0.4443670  0.4443667 -0.1082876  )
        15           Cu  tau(  15) = (  0.7776489  0.4447025 -0.1084491  )
        16           Cu  tau(  16) = (  0.1119676  0.7760648 -0.1083540  )
        17           Cu  tau(  17) = (  0.4447025  0.7776493 -0.1084491  )
        18           Cu  tau(  18) = (  0.7776484  0.7776492 -0.1084491  )
        19           Cu  tau(  19) = ( -0.1107968  0.2215941 -0.0557291  )
        20           Cu  tau(  20) = (  0.2239907  0.2239905 -0.0540653  )
        21           Cu  tau(  21) = (  0.5520191  0.2239904 -0.0540654  )
        22           Cu  tau(  22) = ( -0.1109419  0.5554713 -0.0552794  )
        23           Cu  tau(  23) = (  0.2239904  0.5520191 -0.0540654  )
        24           Cu  tau(  24) = (  0.5554711  0.5554713 -0.0552794  )
        25           Cu  tau(  25) = ( -0.1107973  0.8892034 -0.0557291  )
        26           Cu  tau(  26) = (  0.2215941  0.8892035 -0.0557291  )
        27           Cu  tau(  27) = (  0.5554709  0.8890586 -0.0552794  )
        28           Cu  tau(  28) = ( -0.0000001  0.0000002 -0.0024538  )
        29           Cu  tau(  29) = (  0.3337773 -0.0039950 -0.0022648  )
        30           Cu  tau(  30) = (  0.6702179 -0.0039951 -0.0022649  )
        31           Cu  tau(  31) = ( -0.0039951  0.3337772 -0.0022648  )
        32           Cu  tau(  32) = (  0.3333333  0.3333333  0.0016677  )
        33           Cu  tau(  33) = (  0.6702180  0.3337771 -0.0022648  )
        34           Cu  tau(  34) = ( -0.0039955  0.6702184 -0.0022648  )
        35           Cu  tau(  35) = (  0.3337771  0.6702183 -0.0022648  )
        36           Cu  tau(  36) = (  0.6666665  0.6666672 -0.0021410  )
        37           C   tau(  37) = (  0.3333328  0.3333331  0.0494383  )
        38           O   tau(  38) = (  0.3333325  0.3333328  0.0779480  )

     number of k points=    34  Marzari-Vanderbilt smearing, width (Ry)=  0.0073
                       cart. coord. in units 2pi/alat
        k(    1) = (   0.0000000   0.0000000   0.0000000), wk =   0.0312500
        k(    2) = (   0.0000000   0.1443376   0.0000000), wk =   0.0625000
        k(    3) = (   0.0000000   0.2886753   0.0000000), wk =   0.0625000
        k(    4) = (   0.0000000   0.4330129   0.0000000), wk =   0.0625000
        k(    5) = (   0.0000000  -0.5773505   0.0000000), wk =   0.0312500
        k(    6) = (   0.1250000  -0.0721688   0.0000000), wk =   0.0625000
        k(    7) = (   0.1250000   0.0721688   0.0000000), wk =   0.0625000
        k(    8) = (   0.1250000   0.2165065   0.0000000), wk =   0.0625000
        k(    9) = (   0.1250000   0.3608441   0.0000000), wk =   0.0625000
        k(   10) = (   0.1250000  -0.6495194   0.0000000), wk =   0.0625000
        k(   11) = (   0.1250000  -0.5051817   0.0000000), wk =   0.0625000
        k(   12) = (   0.1250000  -0.3608441   0.0000000), wk =   0.0625000
        k(   13) = (   0.1250000  -0.2165065   0.0000000), wk =   0.0625000
        k(   14) = (   0.2500000  -0.1443376   0.0000000), wk =   0.0625000
        k(   15) = (   0.2500000   0.0000000   0.0000000), wk =   0.0625000
        k(   16) = (   0.2500000   0.1443376   0.0000000), wk =   0.0625000
        k(   17) = (   0.2500000   0.2886753   0.0000000), wk =   0.0625000
        k(   18) = (   0.2500000  -0.7216882   0.0000000), wk =   0.0625000
        k(   19) = (   0.2500000  -0.5773505   0.0000000), wk =   0.0625000
        k(   20) = (   0.2500000  -0.4330129   0.0000000), wk =   0.0625000
        k(   21) = (   0.2500000  -0.2886753   0.0000000), wk =   0.0625000
        k(   22) = (   0.3750000  -0.2165065   0.0000000), wk =   0.0625000
        k(   23) = (   0.3750000  -0.0721688   0.0000000), wk =   0.0625000
        k(   24) = (   0.3750000   0.0721688   0.0000000), wk =   0.0625000
        k(   25) = (   0.3750000   0.2165065   0.0000000), wk =   0.0625000
        k(   26) = (   0.3750000  -0.7938570   0.0000000), wk =   0.0625000
        k(   27) = (   0.3750000  -0.6495194   0.0000000), wk =   0.0625000
        k(   28) = (   0.3750000  -0.5051817   0.0000000), wk =   0.0625000
        k(   29) = (   0.3750000  -0.3608441   0.0000000), wk =   0.0625000
        k(   30) = (  -0.5000000   0.2886753   0.0000000), wk =   0.0312500
        k(   31) = (  -0.5000000   0.4330129   0.0000000), wk =   0.0625000
        k(   32) = (  -0.5000000   0.5773505   0.0000000), wk =   0.0625000
        k(   33) = (  -0.5000000   0.7216882   0.0000000), wk =   0.0625000
        k(   34) = (  -0.5000000  -0.2886753   0.0000000), wk =   0.0312500

                       cryst. coord.
        k(    1) = (   0.0000000   0.0000000   0.0000000), wk =   0.0312500
        k(    2) = (   0.0000000   0.1250000   0.0000000), wk =   0.0625000
        k(    3) = (   0.0000000   0.2500000   0.0000000), wk =   0.0625000
        k(    4) = (   0.0000000   0.3750000   0.0000000), wk =   0.0625000
        k(    5) = (   0.0000000  -0.5000000   0.0000000), wk =   0.0312500
        k(    6) = (   0.1250000   0.0000000   0.0000000), wk =   0.0625000
        k(    7) = (   0.1250000   0.1250000   0.0000000), wk =   0.0625000
        k(    8) = (   0.1250000   0.2500000   0.0000000), wk =   0.0625000
        k(    9) = (   0.1250000   0.3750000   0.0000000), wk =   0.0625000
        k(   10) = (   0.1250000  -0.5000000   0.0000000), wk =   0.0625000
        k(   11) = (   0.1250000  -0.3750000   0.0000000), wk =   0.0625000
        k(   12) = (   0.1250000  -0.2500000   0.0000000), wk =   0.0625000
        k(   13) = (   0.1250000  -0.1250000   0.0000000), wk =   0.0625000
        k(   14) = (   0.2500000   0.0000000   0.0000000), wk =   0.0625000
        k(   15) = (   0.2500000   0.1250000   0.0000000), wk =   0.0625000
        k(   16) = (   0.2500000   0.2500000   0.0000000), wk =   0.0625000
        k(   17) = (   0.2500000   0.3750000   0.0000000), wk =   0.0625000
        k(   18) = (   0.2500000  -0.5000000   0.0000000), wk =   0.0625000
        k(   19) = (   0.2500000  -0.3750000   0.0000000), wk =   0.0625000
        k(   20) = (   0.2500000  -0.2500000   0.0000000), wk =   0.0625000
        k(   21) = (   0.2500000  -0.1250000   0.0000000), wk =   0.0625000
        k(   22) = (   0.3750000   0.0000000   0.0000000), wk =   0.0625000
        k(   23) = (   0.3750000   0.1250000   0.0000000), wk =   0.0625000
        k(   24) = (   0.3750000   0.2500000   0.0000000), wk =   0.0625000
        k(   25) = (   0.3750000   0.3750000   0.0000000), wk =   0.0625000
        k(   26) = (   0.3750000  -0.5000000   0.0000000), wk =   0.0625000
        k(   27) = (   0.3750000  -0.3750000   0.0000000), wk =   0.0625000
        k(   28) = (   0.3750000  -0.2500000   0.0000000), wk =   0.0625000
        k(   29) = (   0.3750000  -0.1250000   0.0000000), wk =   0.0625000
        k(   30) = (  -0.5000000   0.0000000   0.0000000), wk =   0.0312500
        k(   31) = (  -0.5000000   0.1250000   0.0000000), wk =   0.0625000
        k(   32) = (  -0.5000000   0.2500000   0.0000000), wk =   0.0625000
        k(   33) = (  -0.5000000   0.3750000   0.0000000), wk =   0.0625000
        k(   34) = (  -0.5000000  -0.5000000   0.0000000), wk =   0.0312500

     Dense  grid:  3875677 G-vectors     FFT dimensions: ( 120, 120, 625)

     Smooth grid:   980529 G-vectors     FFT dimensions: (  75,  75, 384)

     Estimated max dynamical RAM per process >     140.99MB

     Estimated total allocated dynamical RAM >   33838.49MB

     Solute:
       # atom     E (kcal/mol)  S (angs)
       1  Cu      0.00500000    3.11369102    UFF
       2  Cu      0.00500000    3.11369102    UFF
       3  Cu      0.00500000    3.11369102    UFF
       4  Cu      0.00500000    3.11369102    UFF
       5  Cu      0.00500000    3.11369102    UFF
       6  Cu      0.00500000    3.11369102    UFF
       7  Cu      0.00500000    3.11369102    UFF
       8  Cu      0.00500000    3.11369102    UFF
       9  Cu      0.00500000    3.11369102    UFF
      10  Cu      0.00500000    3.11369102    UFF
      11  Cu      0.00500000    3.11369102    UFF
      12  Cu      0.00500000    3.11369102    UFF
      13  Cu      0.00500000    3.11369102    UFF
      14  Cu      0.00500000    3.11369102    UFF
      15  Cu      0.00500000    3.11369102    UFF
      16  Cu      0.00500000    3.11369102    UFF
      17  Cu      0.00500000    3.11369102    UFF
      18  Cu      0.00500000    3.11369102    UFF
      19  Cu      0.00500000    3.11369102    UFF
      20  Cu      0.00500000    3.11369102    UFF
      21  Cu      0.00500000    3.11369102    UFF
      22  Cu      0.00500000    3.11369102    UFF
      23  Cu      0.00500000    3.11369102    UFF
      24  Cu      0.00500000    3.11369102    UFF
      25  Cu      0.00500000    3.11369102    UFF
      26  Cu      0.00500000    3.11369102    UFF
      27  Cu      0.00500000    3.11369102    UFF
      28  Cu      0.00500000    3.11369102    UFF
      29  Cu      0.00500000    3.11369102    UFF
      30  Cu      0.00500000    3.11369102    UFF
      31  Cu      0.00500000    3.11369102    UFF
      32  Cu      0.00500000    3.11369102    UFF
      33  Cu      0.00500000    3.11369102    UFF
      34  Cu      0.00500000    3.11369102    UFF
      35  Cu      0.00500000    3.11369102    UFF
      36  Cu      0.00500000    3.11369102    UFF
      37  C       0.10500000    3.43085096    UFF
      38  O       0.06000000    3.11814551    UFF

     Wall:
       Density =    0.01000000  bohr^-3
       E       =    0.10000000  kcal/mol
       S       =    4.00000000  angs

     L.J. cutoff radius =       5.0000  S


     Laue-RISM info
     --------------
     closure equation        =           KH
     temperature             =     300.0000  kelvin
     coulomb smearing radius =       2.0000  bohr
     number of solvent sites =            6
     solvent sites           =    O/h2o   H/h2o   L/h2o       K
     solvent sites           =     O/oh    H/oh
     #R-grids in local       =        11250
     #Rz-grids (unit-cell)   =          384
     #Rz-grids (expand-cell) =          720
     #G-grids in local       =         4081
     #Gxy-grids in local     =           17
     #Gxy-shells in local    =           17
     number of iterations    =        10000
     convergence threshold   =      1.0E-06
     convergence level       =       0.8000
     size of MDIIS           =           20
     step of MDIIS           =       0.8000
     solvent cutoff          =     249.8954  Ry
     Custom grid:   980529 G-vectors     FFT dimensions: (  75,  75, 384)

     Boundary Conditions        : Vacuum-Slab-Solvent
     unit-cell (in bohr)        : [ -37.794523  37.794523]
     expand-cell (in bohr)      : [ -37.794523 103.934937]
     solvent of right (in bohr) : [  -8.267552 103.934937]
     buffer  of right (in bohr) : [ -18.109875  -8.267552]
     Gxy = 0 of right (in bohr) : [ -18.109875  82.872365]
     repulsive wall (in bohr)   : [  -Infinity -10.486273]
     reference of potential     : right-hand side
     #grids to fit at edges of unit-cell =    4
     Laue grid:     3865 Gxy-vectors     FFT dimensions: (  75,  75, 720)


     MPI for site:
     number of site groups     =            1
     #procs in a site group    =          240
     this proc in a site group =            0
     the root in a site group  =            0
     this site group           =            0
     inter-site group comm.    =           23
     intra-site group comm.    =            5
     total number of sites     =            6
     starting index of sites   =            1
     ending index of sites     =            6


     MPI for task:
     #procs in a task group    =          240
     this proc in a task group =            0
     the root in a task group  =            0
     task group comm.          =            5


     Initial potential from superposition of free atoms
     Check: negative starting charge=   -0.001648

     starting charge  405.99177, renormalised to  406.00000

     Correlation function is read from file


     negative rho (up, down):  1.648E-03 0.000E+00


     %%%%%%%%%%%%%%%%%%%%%%%%%%%%%%%%%%%%%%%%%%%%%%%%%%%%%%%%%%%%%%%%%%%%%%%%
     %                                                                      %
     % You are using vdW-DF, which was implemented by the Thonhauser group. %
     % Please cite the following two papers that made this development      %
     % possible and the two reviews that describe the various versions:     %
     %                                                                      %
     %   T. Thonhauser et al., PRL 115, 136402 (2015).                      %
     %   T. Thonhauser et al., PRB 76, 125112 (2007).                       %
     %   K. Berland et al., Rep. Prog. Phys. 78, 066501 (2015).             %
     %   D.C. Langreth et al., J. Phys.: Condens. Matter 21, 084203 (2009). %
     %                                                                      %
     %                                                                      %
     % If you are calculating the stress with vdW-DF, please also cite:     %
     %                                                                      %
     %   R. Sabatini et al., J. Phys.: Condens. Matter 24, 424209 (2012).   %
     %                                                                      %
     %%%%%%%%%%%%%%%%%%%%%%%%%%%%%%%%%%%%%%%%%%%%%%%%%%%%%%%%%%%%%%%%%%%%%%%%


     Carrying out vdW-DF run using the following parameters:
     Nqs    =  20  Npoints =  1024  r_max =  100.000
     q_mesh =  0.00001000  0.04494208  0.09755937  0.15916263
               0.23128650  0.31572767  0.41458969  0.53033537
               0.66584808  0.82450364  1.01025438  1.22772762
               1.48234092  1.78043706  2.12944203  2.53805004
               3.01644009  3.57652955  4.23227104  5.00000000


     -----------------------------------------------
     Non-local corr. energy    =      22.28456193 Ry
     -----------------------------------------------


     Laue-RISM Calculation

     convergence threshold    = 6.310E-06
     iter. #     1  RMS(g-h-1)= 6.031E-02  nbox=  0
     iter. #     2  RMS(g-h-1)= 4.632E-02  nbox=  1
     iter. #     3  RMS(g-h-1)= 2.844E-02  nbox=  2
     iter. #     4  RMS(g-h-1)= 1.241E-02  nbox=  3
     iter. #     5  RMS(g-h-1)= 1.061E-02  nbox=  4
     iter. #     6  RMS(g-h-1)= 8.738E-03  nbox=  5
     iter. #     7  RMS(g-h-1)= 7.356E-03  nbox=  6
     iter. #     8  RMS(g-h-1)= 6.507E-03  nbox=  7
     iter. #     9  RMS(g-h-1)= 6.044E-03  nbox=  8
     iter. #    10  RMS(g-h-1)= 5.642E-03  nbox=  9
     iter. #    11  RMS(g-h-1)= 5.248E-03  nbox= 10
     iter. #    12  RMS(g-h-1)= 4.916E-03  nbox= 11
     iter. #    13  RMS(g-h-1)= 4.705E-03  nbox= 12
     iter. #    14  RMS(g-h-1)= 4.402E-03  nbox= 13
     iter. #    15  RMS(g-h-1)= 3.999E-03  nbox= 14
     iter. #    16  RMS(g-h-1)= 3.711E-03  nbox= 15
     iter. #    17  RMS(g-h-1)= 3.427E-03  nbox= 16
     iter. #    18  RMS(g-h-1)= 3.024E-03  nbox= 17
     iter. #    19  RMS(g-h-1)= 2.678E-03  nbox= 18
     iter. #    20  RMS(g-h-1)= 2.506E-03  nbox= 19
     iter. #    21  RMS(g-h-1)= 2.230E-03  nbox= 20
     iter. #    22  RMS(g-h-1)= 2.022E-03  nbox= 20
     iter. #    23  RMS(g-h-1)= 1.894E-03  nbox= 20
     iter. #    24  RMS(g-h-1)= 1.819E-03  nbox= 20
     iter. #    25  RMS(g-h-1)= 1.723E-03  nbox= 20
     iter. #    26  RMS(g-h-1)= 1.624E-03  nbox= 20
     iter. #    27  RMS(g-h-1)= 1.566E-03  nbox= 20
     iter. #    28  RMS(g-h-1)= 1.531E-03  nbox= 20
     iter. #    29  RMS(g-h-1)= 1.469E-03  nbox= 20
     iter. #    30  RMS(g-h-1)= 1.432E-03  nbox= 20
     iter. #    31  RMS(g-h-1)= 1.398E-03  nbox= 20
     iter. #    32  RMS(g-h-1)= 1.356E-03  nbox= 20
     iter. #    33  RMS(g-h-1)= 1.308E-03  nbox= 20
     iter. #    34  RMS(g-h-1)= 1.252E-03  nbox= 20
     iter. #    35  RMS(g-h-1)= 1.203E-03  nbox= 20
     iter. #    36  RMS(g-h-1)= 1.170E-03  nbox= 20
     iter. #    37  RMS(g-h-1)= 1.133E-03  nbox= 20
     iter. #    38  RMS(g-h-1)= 1.109E-03  nbox= 20
     iter. #    39  RMS(g-h-1)= 1.095E-03  nbox= 20
     iter. #    40  RMS(g-h-1)= 1.046E-03  nbox= 20
     iter. #    41  RMS(g-h-1)= 9.944E-04  nbox= 20
     iter. #    42  RMS(g-h-1)= 9.850E-04  nbox= 20
     iter. #    43  RMS(g-h-1)= 9.749E-04  nbox=  2
     iter. #    44  RMS(g-h-1)= 9.483E-04  nbox=  3
     iter. #    45  RMS(g-h-1)= 9.244E-04  nbox=  4
     iter. #    46  RMS(g-h-1)= 9.033E-04  nbox=  5
     iter. #    47  RMS(g-h-1)= 8.826E-04  nbox=  6
     iter. #    48  RMS(g-h-1)= 9.043E-04  nbox=  7
     iter. #    49  RMS(g-h-1)= 8.553E-04  nbox=  8
     iter. #    50  RMS(g-h-1)= 8.456E-04  nbox=  9
     iter. #    51  RMS(g-h-1)= 8.278E-04  nbox= 10
     iter. #    52  RMS(g-h-1)= 8.061E-04  nbox= 11
     iter. #    53  RMS(g-h-1)= 7.926E-04  nbox= 12
     iter. #    54  RMS(g-h-1)= 7.753E-04  nbox= 13
     iter. #    55  RMS(g-h-1)= 7.496E-04  nbox= 14
     iter. #    56  RMS(g-h-1)= 7.336E-04  nbox= 15
     iter. #    57  RMS(g-h-1)= 7.173E-04  nbox= 16
     iter. #    58  RMS(g-h-1)= 7.054E-04  nbox= 17
     iter. #    59  RMS(g-h-1)= 7.001E-04  nbox=  2
     iter. #    60  RMS(g-h-1)= 6.838E-04  nbox=  3
     iter. #    61  RMS(g-h-1)= 6.693E-04  nbox=  4
     iter. #    62  RMS(g-h-1)= 6.590E-04  nbox=  5
     iter. #    63  RMS(g-h-1)= 6.483E-04  nbox=  6
     iter. #    64  RMS(g-h-1)= 6.407E-04  nbox=  7
     iter. #    65  RMS(g-h-1)= 6.253E-04  nbox=  8
     iter. #    66  RMS(g-h-1)= 6.113E-04  nbox=  9
     iter. #    67  RMS(g-h-1)= 6.031E-04  nbox= 10
     iter. #    68  RMS(g-h-1)= 5.873E-04  nbox= 11
     iter. #    69  RMS(g-h-1)= 5.874E-04  nbox= 12
     iter. #    70  RMS(g-h-1)= 5.758E-04  nbox= 13
     iter. #    71  RMS(g-h-1)= 5.728E-04  nbox= 14
     iter. #    72  RMS(g-h-1)= 5.653E-04  nbox= 15
     iter. #    73  RMS(g-h-1)= 5.625E-04  nbox= 16
     iter. #    74  RMS(g-h-1)= 5.537E-04  nbox= 17
     iter. #    75  RMS(g-h-1)= 5.507E-04  nbox=  2
     iter. #    76  RMS(g-h-1)= 5.406E-04  nbox=  3
     iter. #    77  RMS(g-h-1)= 5.287E-04  nbox=  4
     iter. #    78  RMS(g-h-1)= 5.180E-04  nbox=  5
     iter. #    79  RMS(g-h-1)= 5.108E-04  nbox=  6
     iter. #    80  RMS(g-h-1)= 4.962E-04  nbox=  7
     iter. #    81  RMS(g-h-1)= 4.805E-04  nbox=  8
     iter. #    82  RMS(g-h-1)= 4.648E-04  nbox=  9
     iter. #    83  RMS(g-h-1)= 4.583E-04  nbox= 10
     iter. #    84  RMS(g-h-1)= 4.472E-04  nbox= 11
     iter. #    85  RMS(g-h-1)= 4.380E-04  nbox= 12
     iter. #    86  RMS(g-h-1)= 4.283E-04  nbox= 13
     iter. #    87  RMS(g-h-1)= 4.194E-04  nbox= 14
     iter. #    88  RMS(g-h-1)= 4.186E-04  nbox= 15
     iter. #    89  RMS(g-h-1)= 4.109E-04  nbox= 16
     iter. #    90  RMS(g-h-1)= 4.097E-04  nbox= 17
     iter. #    91  RMS(g-h-1)= 4.080E-04  nbox=  2
     iter. #    92  RMS(g-h-1)= 4.009E-04  nbox=  3
     iter. #    93  RMS(g-h-1)= 3.930E-04  nbox=  4
     iter. #    94  RMS(g-h-1)= 3.830E-04  nbox=  5
     iter. #    95  RMS(g-h-1)= 3.721E-04  nbox=  6
     iter. #    96  RMS(g-h-1)= 3.607E-04  nbox=  7
     iter. #    97  RMS(g-h-1)= 3.557E-04  nbox=  8
     iter. #    98  RMS(g-h-1)= 3.467E-04  nbox=  9
     iter. #    99  RMS(g-h-1)= 3.390E-04  nbox= 10
     iter. #   100  RMS(g-h-1)= 3.335E-04  nbox= 11
     iter. #   101  RMS(g-h-1)= 3.277E-04  nbox= 12
     iter. #   102  RMS(g-h-1)= 3.318E-04  nbox= 13
     iter. #   103  RMS(g-h-1)= 3.204E-04  nbox= 14
     iter. #   104  RMS(g-h-1)= 3.182E-04  nbox= 15
     iter. #   105  RMS(g-h-1)= 3.120E-04  nbox= 16
     iter. #   106  RMS(g-h-1)= 3.053E-04  nbox= 17
     iter. #   107  RMS(g-h-1)= 3.049E-04  nbox=  2
     iter. #   108  RMS(g-h-1)= 2.979E-04  nbox=  3
     iter. #   109  RMS(g-h-1)= 2.933E-04  nbox=  4
     iter. #   110  RMS(g-h-1)= 2.873E-04  nbox=  5
     iter. #   111  RMS(g-h-1)= 2.848E-04  nbox=  6
     iter. #   112  RMS(g-h-1)= 2.796E-04  nbox=  7
     iter. #   113  RMS(g-h-1)= 2.746E-04  nbox=  8
     iter. #   114  RMS(g-h-1)= 2.709E-04  nbox=  9
     iter. #   115  RMS(g-h-1)= 2.670E-04  nbox= 10
     iter. #   116  RMS(g-h-1)= 2.659E-04  nbox= 11
     iter. #   117  RMS(g-h-1)= 2.623E-04  nbox= 12
     iter. #   118  RMS(g-h-1)= 2.597E-04  nbox= 13
     iter. #   119  RMS(g-h-1)= 2.573E-04  nbox= 14
     iter. #   120  RMS(g-h-1)= 2.570E-04  nbox= 15
     iter. #   121  RMS(g-h-1)= 2.544E-04  nbox= 16
     iter. #   122  RMS(g-h-1)= 2.520E-04  nbox= 17
     iter. #   123  RMS(g-h-1)= 2.515E-04  nbox=  2
     iter. #   124  RMS(g-h-1)= 2.486E-04  nbox=  3
     iter. #   125  RMS(g-h-1)= 2.464E-04  nbox=  4
     iter. #   126  RMS(g-h-1)= 2.439E-04  nbox=  5
     iter. #   127  RMS(g-h-1)= 2.440E-04  nbox=  6
     iter. #   128  RMS(g-h-1)= 2.413E-04  nbox=  7
     iter. #   129  RMS(g-h-1)= 2.394E-04  nbox=  8
     iter. #   130  RMS(g-h-1)= 2.377E-04  nbox=  9
     iter. #   131  RMS(g-h-1)= 2.356E-04  nbox= 10
     iter. #   132  RMS(g-h-1)= 2.340E-04  nbox= 11
     iter. #   133  RMS(g-h-1)= 2.330E-04  nbox= 12
     iter. #   134  RMS(g-h-1)= 2.310E-04  nbox= 13
     iter. #   135  RMS(g-h-1)= 2.291E-04  nbox= 14
     iter. #   136  RMS(g-h-1)= 2.290E-04  nbox= 15
     iter. #   137  RMS(g-h-1)= 2.252E-04  nbox= 16
     iter. #   138  RMS(g-h-1)= 2.248E-04  nbox= 17
     iter. #   139  RMS(g-h-1)= 2.243E-04  nbox=  2
     iter. #   140  RMS(g-h-1)= 2.224E-04  nbox=  3
     iter. #   141  RMS(g-h-1)= 2.208E-04  nbox=  4
     iter. #   142  RMS(g-h-1)= 2.191E-04  nbox=  5
     iter. #   143  RMS(g-h-1)= 2.176E-04  nbox=  6
     iter. #   144  RMS(g-h-1)= 2.167E-04  nbox=  7
     iter. #   145  RMS(g-h-1)= 2.156E-04  nbox=  8
     iter. #   146  RMS(g-h-1)= 2.142E-04  nbox=  9
     iter. #   147  RMS(g-h-1)= 2.126E-04  nbox= 10
     iter. #   148  RMS(g-h-1)= 2.128E-04  nbox= 11
     iter. #   149  RMS(g-h-1)= 2.104E-04  nbox= 12
     iter. #   150  RMS(g-h-1)= 2.097E-04  nbox= 13
     iter. #   151  RMS(g-h-1)= 2.084E-04  nbox= 14
     iter. #   152  RMS(g-h-1)= 2.072E-04  nbox= 15
     iter. #   153  RMS(g-h-1)= 2.093E-04  nbox= 16
     iter. #   154  RMS(g-h-1)= 2.039E-04  nbox= 17
     iter. #   155  RMS(g-h-1)= 2.052E-04  nbox=  2
     iter. #   156  RMS(g-h-1)= 2.020E-04  nbox=  3
     iter. #   157  RMS(g-h-1)= 2.009E-04  nbox=  4
     iter. #   158  RMS(g-h-1)= 2.005E-04  nbox=  5
     iter. #   159  RMS(g-h-1)= 1.991E-04  nbox=  6
     iter. #   160  RMS(g-h-1)= 1.978E-04  nbox=  7
     iter. #   161  RMS(g-h-1)= 1.964E-04  nbox=  8
     iter. #   162  RMS(g-h-1)= 1.952E-04  nbox=  9
     iter. #   163  RMS(g-h-1)= 1.934E-04  nbox= 10
     iter. #   164  RMS(g-h-1)= 1.934E-04  nbox= 11
     iter. #   165  RMS(g-h-1)= 1.916E-04  nbox= 12
     iter. #   166  RMS(g-h-1)= 1.905E-04  nbox= 13
     iter. #   167  RMS(g-h-1)= 1.890E-04  nbox= 14
     iter. #   168  RMS(g-h-1)= 1.885E-04  nbox= 15
     iter. #   169  RMS(g-h-1)= 1.863E-04  nbox= 16
     iter. #   170  RMS(g-h-1)= 1.857E-04  nbox= 17
     iter. #   171  RMS(g-h-1)= 1.852E-04  nbox=  2
     iter. #   172  RMS(g-h-1)= 1.836E-04  nbox=  3
     iter. #   173  RMS(g-h-1)= 1.819E-04  nbox=  4
     iter. #   174  RMS(g-h-1)= 1.799E-04  nbox=  5
     iter. #   175  RMS(g-h-1)= 1.803E-04  nbox=  6
     iter. #   176  RMS(g-h-1)= 1.770E-04  nbox=  7
     iter. #   177  RMS(g-h-1)= 1.762E-04  nbox=  8
     iter. #   178  RMS(g-h-1)= 1.747E-04  nbox=  9
     iter. #   179  RMS(g-h-1)= 1.726E-04  nbox= 10
     iter. #   180  RMS(g-h-1)= 1.758E-04  nbox= 11
     iter. #   181  RMS(g-h-1)= 1.696E-04  nbox= 12
     iter. #   182  RMS(g-h-1)= 1.684E-04  nbox= 13
     iter. #   183  RMS(g-h-1)= 1.665E-04  nbox= 14
     iter. #   184  RMS(g-h-1)= 1.643E-04  nbox= 15
     iter. #   185  RMS(g-h-1)= 1.634E-04  nbox= 16
     iter. #   186  RMS(g-h-1)= 1.616E-04  nbox= 17
     iter. #   187  RMS(g-h-1)= 1.610E-04  nbox=  2
     iter. #   188  RMS(g-h-1)= 1.591E-04  nbox=  3
     iter. #   189  RMS(g-h-1)= 1.572E-04  nbox=  4
     iter. #   190  RMS(g-h-1)= 1.554E-04  nbox=  5
     iter. #   191  RMS(g-h-1)= 1.548E-04  nbox=  6
     iter. #   192  RMS(g-h-1)= 1.530E-04  nbox=  7
     iter. #   193  RMS(g-h-1)= 1.518E-04  nbox=  8
     iter. #   194  RMS(g-h-1)= 1.503E-04  nbox=  9
     iter. #   195  RMS(g-h-1)= 1.503E-04  nbox= 10
     iter. #   196  RMS(g-h-1)= 1.477E-04  nbox= 11
     iter. #   197  RMS(g-h-1)= 1.479E-04  nbox= 12
     iter. #   198  RMS(g-h-1)= 1.456E-04  nbox= 13
     iter. #   199  RMS(g-h-1)= 1.437E-04  nbox= 14
     iter. #   200  RMS(g-h-1)= 1.431E-04  nbox= 15
     iter. #   201  RMS(g-h-1)= 1.400E-04  nbox= 16
     iter. #   202  RMS(g-h-1)= 1.393E-04  nbox= 17
     iter. #   203  RMS(g-h-1)= 1.387E-04  nbox=  2
     iter. #   204  RMS(g-h-1)= 1.368E-04  nbox=  3
     iter. #   205  RMS(g-h-1)= 1.352E-04  nbox=  4
     iter. #   206  RMS(g-h-1)= 1.333E-04  nbox=  5
     iter. #   207  RMS(g-h-1)= 1.327E-04  nbox=  6
     iter. #   208  RMS(g-h-1)= 1.312E-04  nbox=  7
     iter. #   209  RMS(g-h-1)= 1.298E-04  nbox=  8
     iter. #   210  RMS(g-h-1)= 1.286E-04  nbox=  9
     iter. #   211  RMS(g-h-1)= 1.275E-04  nbox= 10
     iter. #   212  RMS(g-h-1)= 1.275E-04  nbox= 11
     iter. #   213  RMS(g-h-1)= 1.259E-04  nbox= 12
     iter. #   214  RMS(g-h-1)= 1.246E-04  nbox= 13
     iter. #   215  RMS(g-h-1)= 1.232E-04  nbox= 14
     iter. #   216  RMS(g-h-1)= 1.217E-04  nbox= 15
     iter. #   217  RMS(g-h-1)= 1.213E-04  nbox= 16
     iter. #   218  RMS(g-h-1)= 1.194E-04  nbox= 17
     iter. #   219  RMS(g-h-1)= 1.192E-04  nbox=  2
     iter. #   220  RMS(g-h-1)= 1.175E-04  nbox=  3
     iter. #   221  RMS(g-h-1)= 1.162E-04  nbox=  4
     iter. #   222  RMS(g-h-1)= 1.155E-04  nbox=  5
     iter. #   223  RMS(g-h-1)= 1.146E-04  nbox=  6
     iter. #   224  RMS(g-h-1)= 1.134E-04  nbox=  7
     iter. #   225  RMS(g-h-1)= 1.121E-04  nbox=  8
     iter. #   226  RMS(g-h-1)= 1.106E-04  nbox=  9
     iter. #   227  RMS(g-h-1)= 1.090E-04  nbox= 10
     iter. #   228  RMS(g-h-1)= 1.092E-04  nbox= 11
     iter. #   229  RMS(g-h-1)= 1.061E-04  nbox= 12
     iter. #   230  RMS(g-h-1)= 1.052E-04  nbox= 13
     iter. #   231  RMS(g-h-1)= 1.033E-04  nbox= 14
     iter. #   232  RMS(g-h-1)= 1.020E-04  nbox= 15
     iter. #   233  RMS(g-h-1)= 1.018E-04  nbox= 16
     iter. #   234  RMS(g-h-1)= 1.003E-04  nbox= 17
     iter. #   235  RMS(g-h-1)= 9.992E-05  nbox=  2
     iter. #   236  RMS(g-h-1)= 9.851E-05  nbox=  3
     iter. #   237  RMS(g-h-1)= 9.721E-05  nbox=  4
     iter. #   238  RMS(g-h-1)= 9.644E-05  nbox=  5
     iter. #   239  RMS(g-h-1)= 9.548E-05  nbox=  6
     iter. #   240  RMS(g-h-1)= 9.470E-05  nbox=  7
     iter. #   241  RMS(g-h-1)= 9.345E-05  nbox=  8
     iter. #   242  RMS(g-h-1)= 9.236E-05  nbox=  9
     iter. #   243  RMS(g-h-1)= 9.104E-05  nbox= 10
     iter. #   244  RMS(g-h-1)= 8.991E-05  nbox= 11
     iter. #   245  RMS(g-h-1)= 8.913E-05  nbox= 12
     iter. #   246  RMS(g-h-1)= 8.786E-05  nbox= 13
     iter. #   247  RMS(g-h-1)= 8.667E-05  nbox= 14
     iter. #   248  RMS(g-h-1)= 8.544E-05  nbox= 15
     iter. #   249  RMS(g-h-1)= 8.446E-05  nbox= 16
     iter. #   250  RMS(g-h-1)= 8.374E-05  nbox= 17
     iter. #   251  RMS(g-h-1)= 8.331E-05  nbox=  2
     iter. #   252  RMS(g-h-1)= 8.255E-05  nbox=  3
     iter. #   253  RMS(g-h-1)= 8.153E-05  nbox=  4
     iter. #   254  RMS(g-h-1)= 8.062E-05  nbox=  5
     iter. #   255  RMS(g-h-1)= 8.029E-05  nbox=  6
     iter. #   256  RMS(g-h-1)= 7.926E-05  nbox=  7
     iter. #   257  RMS(g-h-1)= 7.860E-05  nbox=  8
     iter. #   258  RMS(g-h-1)= 7.783E-05  nbox=  9
     iter. #   259  RMS(g-h-1)= 7.691E-05  nbox= 10
     iter. #   260  RMS(g-h-1)= 7.802E-05  nbox= 11
     iter. #   261  RMS(g-h-1)= 7.554E-05  nbox= 12
     iter. #   262  RMS(g-h-1)= 7.500E-05  nbox= 13
     iter. #   263  RMS(g-h-1)= 7.381E-05  nbox= 14
     iter. #   264  RMS(g-h-1)= 7.285E-05  nbox= 15
     iter. #   265  RMS(g-h-1)= 7.194E-05  nbox= 16
     iter. #   266  RMS(g-h-1)= 7.152E-05  nbox= 17
     iter. #   267  RMS(g-h-1)= 7.121E-05  nbox=  2
     iter. #   268  RMS(g-h-1)= 7.055E-05  nbox=  3
     iter. #   269  RMS(g-h-1)= 6.992E-05  nbox=  4
     iter. #   270  RMS(g-h-1)= 6.928E-05  nbox=  5
     iter. #   271  RMS(g-h-1)= 6.858E-05  nbox=  6
     iter. #   272  RMS(g-h-1)= 6.824E-05  nbox=  7
     iter. #   273  RMS(g-h-1)= 6.775E-05  nbox=  8
     iter. #   274  RMS(g-h-1)= 6.713E-05  nbox=  9
     iter. #   275  RMS(g-h-1)= 6.664E-05  nbox= 10
     iter. #   276  RMS(g-h-1)= 6.597E-05  nbox= 11
     iter. #   277  RMS(g-h-1)= 6.691E-05  nbox= 12
     iter. #   278  RMS(g-h-1)= 6.503E-05  nbox= 13
     iter. #   279  RMS(g-h-1)= 6.461E-05  nbox= 14
     iter. #   280  RMS(g-h-1)= 6.399E-05  nbox= 15
     iter. #   281  RMS(g-h-1)= 6.335E-05  nbox= 16
     iter. #   282  RMS(g-h-1)= 6.283E-05  nbox= 17
     iter. #   283  RMS(g-h-1)= 6.264E-05  nbox=  2
     iter. #   284  RMS(g-h-1)= 6.206E-05  nbox=  3
     iter. #   285  RMS(g-h-1)= 6.163E-05  nbox=  4
     iter. #   286  RMS(g-h-1)= 6.111E-05  nbox=  5
     iter. #   287  RMS(g-h-1)= 6.144E-05  nbox=  6
     iter. #   288  RMS(g-h-1)= 6.050E-05  nbox=  7
     iter. #   289  RMS(g-h-1)= 6.013E-05  nbox=  8
     iter. #   290  RMS(g-h-1)= 5.975E-05  nbox=  9
     iter. #   291  RMS(g-h-1)= 5.919E-05  nbox= 10
     iter. #   292  RMS(g-h-1)= 5.966E-05  nbox= 11
     iter. #   293  RMS(g-h-1)= 5.856E-05  nbox= 12
     iter. #   294  RMS(g-h-1)= 5.823E-05  nbox= 13
     iter. #   295  RMS(g-h-1)= 5.778E-05  nbox= 14
     iter. #   296  RMS(g-h-1)= 5.733E-05  nbox= 15
     iter. #   297  RMS(g-h-1)= 5.699E-05  nbox= 16
     iter. #   298  RMS(g-h-1)= 5.669E-05  nbox= 17
     iter. #   299  RMS(g-h-1)= 5.655E-05  nbox=  2
     iter. #   300  RMS(g-h-1)= 5.630E-05  nbox=  3
     iter. #   301  RMS(g-h-1)= 5.602E-05  nbox=  4
     iter. #   302  RMS(g-h-1)= 5.574E-05  nbox=  5
     iter. #   303  RMS(g-h-1)= 5.549E-05  nbox=  6
     iter. #   304  RMS(g-h-1)= 5.535E-05  nbox=  7
     iter. #   305  RMS(g-h-1)= 5.500E-05  nbox=  8
     iter. #   306  RMS(g-h-1)= 5.461E-05  nbox=  9
     iter. #   307  RMS(g-h-1)= 5.430E-05  nbox= 10
     iter. #   308  RMS(g-h-1)= 5.398E-05  nbox= 11
     iter. #   309  RMS(g-h-1)= 5.477E-05  nbox= 12
     iter. #   310  RMS(g-h-1)= 5.356E-05  nbox= 13
     iter. #   311  RMS(g-h-1)= 5.347E-05  nbox= 14
     iter. #   312  RMS(g-h-1)= 5.324E-05  nbox= 15
     iter. #   313  RMS(g-h-1)= 5.306E-05  nbox= 16
     iter. #   314  RMS(g-h-1)= 5.296E-05  nbox= 17
     iter. #   315  RMS(g-h-1)= 5.288E-05  nbox=  2
     iter. #   316  RMS(g-h-1)= 5.269E-05  nbox=  3
     iter. #   317  RMS(g-h-1)= 5.249E-05  nbox=  4
     iter. #   318  RMS(g-h-1)= 5.223E-05  nbox=  5
     iter. #   319  RMS(g-h-1)= 5.198E-05  nbox=  6
     iter. #   320  RMS(g-h-1)= 5.172E-05  nbox=  7
     iter. #   321  RMS(g-h-1)= 5.157E-05  nbox=  8
     iter. #   322  RMS(g-h-1)= 5.125E-05  nbox=  9
     iter. #   323  RMS(g-h-1)= 5.095E-05  nbox= 10
     iter. #   324  RMS(g-h-1)= 5.065E-05  nbox= 11
     iter. #   325  RMS(g-h-1)= 5.066E-05  nbox= 12
     iter. #   326  RMS(g-h-1)= 5.023E-05  nbox= 13
     iter. #   327  RMS(g-h-1)= 5.016E-05  nbox= 14
     iter. #   328  RMS(g-h-1)= 4.986E-05  nbox= 15
     iter. #   329  RMS(g-h-1)= 4.987E-05  nbox= 16
     iter. #   330  RMS(g-h-1)= 4.944E-05  nbox= 17
     iter. #   331  RMS(g-h-1)= 4.946E-05  nbox=  2
     iter. #   332  RMS(g-h-1)= 4.913E-05  nbox=  3
     iter. #   333  RMS(g-h-1)= 4.890E-05  nbox=  4
     iter. #   334  RMS(g-h-1)= 4.883E-05  nbox=  5
     iter. #   335  RMS(g-h-1)= 4.859E-05  nbox=  6
     iter. #   336  RMS(g-h-1)= 4.835E-05  nbox=  7
     iter. #   337  RMS(g-h-1)= 4.810E-05  nbox=  8
     iter. #   338  RMS(g-h-1)= 4.780E-05  nbox=  9
     iter. #   339  RMS(g-h-1)= 4.749E-05  nbox= 10
     iter. #   340  RMS(g-h-1)= 4.739E-05  nbox= 11
     iter. #   341  RMS(g-h-1)= 4.706E-05  nbox= 12
     iter. #   342  RMS(g-h-1)= 4.694E-05  nbox= 13
     iter. #   343  RMS(g-h-1)= 4.663E-05  nbox= 14
     iter. #   344  RMS(g-h-1)= 4.639E-05  nbox= 15
     iter. #   345  RMS(g-h-1)= 4.630E-05  nbox= 16
     iter. #   346  RMS(g-h-1)= 4.603E-05  nbox= 17
     iter. #   347  RMS(g-h-1)= 4.599E-05  nbox=  2
     iter. #   348  RMS(g-h-1)= 4.579E-05  nbox=  3
     iter. #   349  RMS(g-h-1)= 4.558E-05  nbox=  4
     iter. #   350  RMS(g-h-1)= 4.539E-05  nbox=  5
     iter. #   351  RMS(g-h-1)= 4.529E-05  nbox=  6
     iter. #   352  RMS(g-h-1)= 4.515E-05  nbox=  7
     iter. #   353  RMS(g-h-1)= 4.499E-05  nbox=  8
     iter. #   354  RMS(g-h-1)= 4.477E-05  nbox=  9
     iter. #   355  RMS(g-h-1)= 4.460E-05  nbox= 10
     iter. #   356  RMS(g-h-1)= 4.437E-05  nbox= 11
     iter. #   357  RMS(g-h-1)= 4.459E-05  nbox= 12
     iter. #   358  RMS(g-h-1)= 4.402E-05  nbox= 13
     iter. #   359  RMS(g-h-1)= 4.397E-05  nbox= 14
     iter. #   360  RMS(g-h-1)= 4.378E-05  nbox= 15
     iter. #   361  RMS(g-h-1)= 4.362E-05  nbox= 16
     iter. #   362  RMS(g-h-1)= 4.348E-05  nbox= 17
     iter. #   363  RMS(g-h-1)= 4.344E-05  nbox=  2
     iter. #   364  RMS(g-h-1)= 4.328E-05  nbox=  3
     iter. #   365  RMS(g-h-1)= 4.313E-05  nbox=  4
     iter. #   366  RMS(g-h-1)= 4.300E-05  nbox=  5
     iter. #   367  RMS(g-h-1)= 4.293E-05  nbox=  6
     iter. #   368  RMS(g-h-1)= 4.284E-05  nbox=  7
     iter. #   369  RMS(g-h-1)= 4.274E-05  nbox=  8
     iter. #   370  RMS(g-h-1)= 4.262E-05  nbox=  9
     iter. #   371  RMS(g-h-1)= 4.266E-05  nbox= 10
     iter. #   372  RMS(g-h-1)= 4.243E-05  nbox= 11
     iter. #   373  RMS(g-h-1)= 4.247E-05  nbox= 12
     iter. #   374  RMS(g-h-1)= 4.223E-05  nbox= 13
     iter. #   375  RMS(g-h-1)= 4.214E-05  nbox= 14
     iter. #   376  RMS(g-h-1)= 4.203E-05  nbox= 15
     iter. #   377  RMS(g-h-1)= 4.194E-05  nbox= 16
     iter. #   378  RMS(g-h-1)= 4.191E-05  nbox= 17
     iter. #   379  RMS(g-h-1)= 4.188E-05  nbox=  2
     iter. #   380  RMS(g-h-1)= 4.181E-05  nbox=  3
     iter. #   381  RMS(g-h-1)= 4.172E-05  nbox=  4
     iter. #   382  RMS(g-h-1)= 4.162E-05  nbox=  5
     iter. #   383  RMS(g-h-1)= 4.152E-05  nbox=  6
     iter. #   384  RMS(g-h-1)= 4.140E-05  nbox=  7
     iter. #   385  RMS(g-h-1)= 4.129E-05  nbox=  8
     iter. #   386  RMS(g-h-1)= 4.120E-05  nbox=  9
     iter. #   387  RMS(g-h-1)= 4.110E-05  nbox= 10
     iter. #   388  RMS(g-h-1)= 4.097E-05  nbox= 11
     iter. #   389  RMS(g-h-1)= 4.082E-05  nbox= 12
     iter. #   390  RMS(g-h-1)= 4.068E-05  nbox= 13
     iter. #   391  RMS(g-h-1)= 4.054E-05  nbox= 14
     iter. #   392  RMS(g-h-1)= 4.039E-05  nbox= 15
     iter. #   393  RMS(g-h-1)= 4.034E-05  nbox= 16
     iter. #   394  RMS(g-h-1)= 4.015E-05  nbox= 17
     iter. #   395  RMS(g-h-1)= 4.011E-05  nbox=  2
     iter. #   396  RMS(g-h-1)= 3.988E-05  nbox=  3
     iter. #   397  RMS(g-h-1)= 3.969E-05  nbox=  4
     iter. #   398  RMS(g-h-1)= 3.950E-05  nbox=  5
     iter. #   399  RMS(g-h-1)= 3.942E-05  nbox=  6
     iter. #   400  RMS(g-h-1)= 3.926E-05  nbox=  7
     iter. #   401  RMS(g-h-1)= 3.911E-05  nbox=  8
     iter. #   402  RMS(g-h-1)= 3.897E-05  nbox=  9
     iter. #   403  RMS(g-h-1)= 3.883E-05  nbox= 10
     iter. #   404  RMS(g-h-1)= 3.880E-05  nbox= 11
     iter. #   405  RMS(g-h-1)= 3.865E-05  nbox= 12
     iter. #   406  RMS(g-h-1)= 3.854E-05  nbox= 13
     iter. #   407  RMS(g-h-1)= 3.842E-05  nbox= 14
     iter. #   408  RMS(g-h-1)= 3.833E-05  nbox= 15
     iter. #   409  RMS(g-h-1)= 3.820E-05  nbox= 16
     iter. #   410  RMS(g-h-1)= 3.819E-05  nbox= 17
     iter. #   411  RMS(g-h-1)= 3.816E-05  nbox=  2
     iter. #   412  RMS(g-h-1)= 3.807E-05  nbox=  3
     iter. #   413  RMS(g-h-1)= 3.796E-05  nbox=  4
     iter. #   414  RMS(g-h-1)= 3.788E-05  nbox=  5
     iter. #   415  RMS(g-h-1)= 3.777E-05  nbox=  6
     iter. #   416  RMS(g-h-1)= 3.768E-05  nbox=  7
     iter. #   417  RMS(g-h-1)= 3.763E-05  nbox=  8
     iter. #   418  RMS(g-h-1)= 3.754E-05  nbox=  9
     iter. #   419  RMS(g-h-1)= 3.745E-05  nbox= 10
     iter. #   420  RMS(g-h-1)= 3.736E-05  nbox= 11
     iter. #   421  RMS(g-h-1)= 3.726E-05  nbox= 12
     iter. #   422  RMS(g-h-1)= 3.715E-05  nbox= 13
     iter. #   423  RMS(g-h-1)= 3.706E-05  nbox= 14
     iter. #   424  RMS(g-h-1)= 3.700E-05  nbox= 15
     iter. #   425  RMS(g-h-1)= 3.691E-05  nbox= 16
     iter. #   426  RMS(g-h-1)= 3.678E-05  nbox= 17
     iter. #   427  RMS(g-h-1)= 3.675E-05  nbox=  2
     iter. #   428  RMS(g-h-1)= 3.662E-05  nbox=  3
     iter. #   429  RMS(g-h-1)= 3.651E-05  nbox=  4
     iter. #   430  RMS(g-h-1)= 3.640E-05  nbox=  5
     iter. #   431  RMS(g-h-1)= 3.629E-05  nbox=  6
     iter. #   432  RMS(g-h-1)= 3.624E-05  nbox=  7
     iter. #   433  RMS(g-h-1)= 3.611E-05  nbox=  8
     iter. #   434  RMS(g-h-1)= 3.600E-05  nbox=  9
     iter. #   435  RMS(g-h-1)= 3.586E-05  nbox= 10
     iter. #   436  RMS(g-h-1)= 3.594E-05  nbox= 11
     iter. #   437  RMS(g-h-1)= 3.564E-05  nbox= 12
     iter. #   438  RMS(g-h-1)= 3.556E-05  nbox= 13
     iter. #   439  RMS(g-h-1)= 3.540E-05  nbox= 14
     iter. #   440  RMS(g-h-1)= 3.523E-05  nbox= 15
     iter. #   441  RMS(g-h-1)= 3.508E-05  nbox= 16
     iter. #   442  RMS(g-h-1)= 3.493E-05  nbox= 17
     iter. #   443  RMS(g-h-1)= 3.488E-05  nbox=  2
     iter. #   444  RMS(g-h-1)= 3.472E-05  nbox=  3
     iter. #   445  RMS(g-h-1)= 3.455E-05  nbox=  4
     iter. #   446  RMS(g-h-1)= 3.438E-05  nbox=  5
     iter. #   447  RMS(g-h-1)= 3.428E-05  nbox=  6
     iter. #   448  RMS(g-h-1)= 3.416E-05  nbox=  7
     iter. #   449  RMS(g-h-1)= 3.401E-05  nbox=  8
     iter. #   450  RMS(g-h-1)= 3.380E-05  nbox=  9
     iter. #   451  RMS(g-h-1)= 3.361E-05  nbox= 10
     iter. #   452  RMS(g-h-1)= 3.340E-05  nbox= 11
     iter. #   453  RMS(g-h-1)= 3.346E-05  nbox= 12
     iter. #   454  RMS(g-h-1)= 3.311E-05  nbox= 13
     iter. #   455  RMS(g-h-1)= 3.298E-05  nbox= 14
     iter. #   456  RMS(g-h-1)= 3.279E-05  nbox= 15
     iter. #   457  RMS(g-h-1)= 3.263E-05  nbox= 16
     iter. #   458  RMS(g-h-1)= 3.246E-05  nbox= 17
     iter. #   459  RMS(g-h-1)= 3.242E-05  nbox=  2
     iter. #   460  RMS(g-h-1)= 3.226E-05  nbox=  3
     iter. #   461  RMS(g-h-1)= 3.213E-05  nbox=  4
     iter. #   462  RMS(g-h-1)= 3.200E-05  nbox=  5
     iter. #   463  RMS(g-h-1)= 3.190E-05  nbox=  6
     iter. #   464  RMS(g-h-1)= 3.183E-05  nbox=  7
     iter. #   465  RMS(g-h-1)= 3.171E-05  nbox=  8
     iter. #   466  RMS(g-h-1)= 3.159E-05  nbox=  9
     iter. #   467  RMS(g-h-1)= 3.147E-05  nbox= 10
     iter. #   468  RMS(g-h-1)= 3.137E-05  nbox= 11
     iter. #   469  RMS(g-h-1)= 3.126E-05  nbox= 12
     iter. #   470  RMS(g-h-1)= 3.118E-05  nbox= 13
     iter. #   471  RMS(g-h-1)= 3.112E-05  nbox= 14
     iter. #   472  RMS(g-h-1)= 3.106E-05  nbox= 15
     iter. #   473  RMS(g-h-1)= 3.095E-05  nbox= 16
     iter. #   474  RMS(g-h-1)= 3.084E-05  nbox= 17
     iter. #   475  RMS(g-h-1)= 3.083E-05  nbox=  2
     iter. #   476  RMS(g-h-1)= 3.070E-05  nbox=  3
     iter. #   477  RMS(g-h-1)= 3.059E-05  nbox=  4
     iter. #   478  RMS(g-h-1)= 3.048E-05  nbox=  5
     iter. #   479  RMS(g-h-1)= 3.035E-05  nbox=  6
     iter. #   480  RMS(g-h-1)= 3.031E-05  nbox=  7
     iter. #   481  RMS(g-h-1)= 3.017E-05  nbox=  8
     iter. #   482  RMS(g-h-1)= 3.005E-05  nbox=  9
     iter. #   483  RMS(g-h-1)= 2.992E-05  nbox= 10
     iter. #   484  RMS(g-h-1)= 2.981E-05  nbox= 11
     iter. #   485  RMS(g-h-1)= 2.966E-05  nbox= 12
     iter. #   486  RMS(g-h-1)= 2.964E-05  nbox= 13
     iter. #   487  RMS(g-h-1)= 2.947E-05  nbox= 14
     iter. #   488  RMS(g-h-1)= 2.935E-05  nbox= 15
     iter. #   489  RMS(g-h-1)= 2.921E-05  nbox= 16
     iter. #   490  RMS(g-h-1)= 2.909E-05  nbox= 17
     iter. #   491  RMS(g-h-1)= 2.906E-05  nbox=  2
     iter. #   492  RMS(g-h-1)= 2.893E-05  nbox=  3
     iter. #   493  RMS(g-h-1)= 2.881E-05  nbox=  4
     iter. #   494  RMS(g-h-1)= 2.868E-05  nbox=  5
     iter. #   495  RMS(g-h-1)= 2.857E-05  nbox=  6
     iter. #   496  RMS(g-h-1)= 2.851E-05  nbox=  7
     iter. #   497  RMS(g-h-1)= 2.838E-05  nbox=  8
     iter. #   498  RMS(g-h-1)= 2.827E-05  nbox=  9
     iter. #   499  RMS(g-h-1)= 2.815E-05  nbox= 10
     iter. #   500  RMS(g-h-1)= 2.804E-05  nbox= 11
     iter. #   501  RMS(g-h-1)= 2.794E-05  nbox= 12
     iter. #   502  RMS(g-h-1)= 2.787E-05  nbox= 13
     iter. #   503  RMS(g-h-1)= 2.780E-05  nbox= 14
     iter. #   504  RMS(g-h-1)= 2.775E-05  nbox= 15
     iter. #   505  RMS(g-h-1)= 2.765E-05  nbox= 16
     iter. #   506  RMS(g-h-1)= 2.756E-05  nbox= 17
     iter. #   507  RMS(g-h-1)= 2.755E-05  nbox=  2
     iter. #   508  RMS(g-h-1)= 2.743E-05  nbox=  3
     iter. #   509  RMS(g-h-1)= 2.732E-05  nbox=  4
     iter. #   510  RMS(g-h-1)= 2.723E-05  nbox=  5
     iter. #   511  RMS(g-h-1)= 2.714E-05  nbox=  6
     iter. #   512  RMS(g-h-1)= 2.707E-05  nbox=  7
     iter. #   513  RMS(g-h-1)= 2.702E-05  nbox=  8
     iter. #   514  RMS(g-h-1)= 2.693E-05  nbox=  9
     iter. #   515  RMS(g-h-1)= 2.685E-05  nbox= 10
     iter. #   516  RMS(g-h-1)= 2.677E-05  nbox= 11
     iter. #   517  RMS(g-h-1)= 2.670E-05  nbox= 12
     iter. #   518  RMS(g-h-1)= 2.663E-05  nbox= 13
     iter. #   519  RMS(g-h-1)= 2.656E-05  nbox= 14
     iter. #   520  RMS(g-h-1)= 2.651E-05  nbox= 15
     iter. #   521  RMS(g-h-1)= 2.645E-05  nbox= 16
     iter. #   522  RMS(g-h-1)= 2.637E-05  nbox= 17
     iter. #   523  RMS(g-h-1)= 2.636E-05  nbox=  2
     iter. #   524  RMS(g-h-1)= 2.627E-05  nbox=  3
     iter. #   525  RMS(g-h-1)= 2.618E-05  nbox=  4
     iter. #   526  RMS(g-h-1)= 2.608E-05  nbox=  5
     iter. #   527  RMS(g-h-1)= 2.602E-05  nbox=  6
     iter. #   528  RMS(g-h-1)= 2.594E-05  nbox=  7
     iter. #   529  RMS(g-h-1)= 2.590E-05  nbox=  8
     iter. #   530  RMS(g-h-1)= 2.579E-05  nbox=  9
     iter. #   531  RMS(g-h-1)= 2.570E-05  nbox= 10
     iter. #   532  RMS(g-h-1)= 2.560E-05  nbox= 11
     iter. #   533  RMS(g-h-1)= 2.549E-05  nbox= 12
     iter. #   534  RMS(g-h-1)= 2.538E-05  nbox= 13
     iter. #   535  RMS(g-h-1)= 2.533E-05  nbox= 14
     iter. #   536  RMS(g-h-1)= 2.523E-05  nbox= 15
     iter. #   537  RMS(g-h-1)= 2.512E-05  nbox= 16
     iter. #   538  RMS(g-h-1)= 2.502E-05  nbox= 17
     iter. #   539  RMS(g-h-1)= 2.501E-05  nbox=  2
     iter. #   540  RMS(g-h-1)= 2.490E-05  nbox=  3
     iter. #   541  RMS(g-h-1)= 2.482E-05  nbox=  4
     iter. #   542  RMS(g-h-1)= 2.473E-05  nbox=  5
     iter. #   543  RMS(g-h-1)= 2.464E-05  nbox=  6
     iter. #   544  RMS(g-h-1)= 2.460E-05  nbox=  7
     iter. #   545  RMS(g-h-1)= 2.451E-05  nbox=  8
     iter. #   546  RMS(g-h-1)= 2.443E-05  nbox=  9
     iter. #   547  RMS(g-h-1)= 2.433E-05  nbox= 10
     iter. #   548  RMS(g-h-1)= 2.423E-05  nbox= 11
     iter. #   549  RMS(g-h-1)= 2.414E-05  nbox= 12
     iter. #   550  RMS(g-h-1)= 2.406E-05  nbox= 13
     iter. #   551  RMS(g-h-1)= 2.397E-05  nbox= 14
     iter. #   552  RMS(g-h-1)= 2.396E-05  nbox= 15
     iter. #   553  RMS(g-h-1)= 2.386E-05  nbox= 16
     iter. #   554  RMS(g-h-1)= 2.379E-05  nbox= 17
     iter. #   555  RMS(g-h-1)= 2.379E-05  nbox=  2
     iter. #   556  RMS(g-h-1)= 2.371E-05  nbox=  3
     iter. #   557  RMS(g-h-1)= 2.366E-05  nbox=  4
     iter. #   558  RMS(g-h-1)= 2.360E-05  nbox=  5
     iter. #   559  RMS(g-h-1)= 2.355E-05  nbox=  6
     iter. #   560  RMS(g-h-1)= 2.351E-05  nbox=  7
     iter. #   561  RMS(g-h-1)= 2.348E-05  nbox=  8
     iter. #   562  RMS(g-h-1)= 2.343E-05  nbox=  9
     iter. #   563  RMS(g-h-1)= 2.339E-05  nbox= 10
     iter. #   564  RMS(g-h-1)= 2.334E-05  nbox= 11
     iter. #   565  RMS(g-h-1)= 2.329E-05  nbox= 12
     iter. #   566  RMS(g-h-1)= 2.324E-05  nbox= 13
     iter. #   567  RMS(g-h-1)= 2.319E-05  nbox= 14
     iter. #   568  RMS(g-h-1)= 2.315E-05  nbox= 15
     iter. #   569  RMS(g-h-1)= 2.312E-05  nbox= 16
     iter. #   570  RMS(g-h-1)= 2.307E-05  nbox= 17
     iter. #   571  RMS(g-h-1)= 2.306E-05  nbox=  2
     iter. #   572  RMS(g-h-1)= 2.301E-05  nbox=  3
     iter. #   573  RMS(g-h-1)= 2.296E-05  nbox=  4
     iter. #   574  RMS(g-h-1)= 2.291E-05  nbox=  5
     iter. #   575  RMS(g-h-1)= 2.296E-05  nbox=  6
     iter. #   576  RMS(g-h-1)= 2.284E-05  nbox=  7
     iter. #   577  RMS(g-h-1)= 2.282E-05  nbox=  8
     iter. #   578  RMS(g-h-1)= 2.277E-05  nbox=  9
     iter. #   579  RMS(g-h-1)= 2.273E-05  nbox= 10
     iter. #   580  RMS(g-h-1)= 2.268E-05  nbox= 11
     iter. #   581  RMS(g-h-1)= 2.264E-05  nbox= 12
     iter. #   582  RMS(g-h-1)= 2.260E-05  nbox= 13
     iter. #   583  RMS(g-h-1)= 2.257E-05  nbox= 14
     iter. #   584  RMS(g-h-1)= 2.252E-05  nbox= 15
     iter. #   585  RMS(g-h-1)= 2.248E-05  nbox= 16
     iter. #   586  RMS(g-h-1)= 2.244E-05  nbox= 17
     iter. #   587  RMS(g-h-1)= 2.243E-05  nbox=  2
     iter. #   588  RMS(g-h-1)= 2.238E-05  nbox=  3
     iter. #   589  RMS(g-h-1)= 2.234E-05  nbox=  4
     iter. #   590  RMS(g-h-1)= 2.230E-05  nbox=  5
     iter. #   591  RMS(g-h-1)= 2.226E-05  nbox=  6
     iter. #   592  RMS(g-h-1)= 2.221E-05  nbox=  7
     iter. #   593  RMS(g-h-1)= 2.219E-05  nbox=  8
     iter. #   594  RMS(g-h-1)= 2.216E-05  nbox=  9
     iter. #   595  RMS(g-h-1)= 2.211E-05  nbox= 10
     iter. #   596  RMS(g-h-1)= 2.208E-05  nbox= 11
     iter. #   597  RMS(g-h-1)= 2.204E-05  nbox= 12
     iter. #   598  RMS(g-h-1)= 2.200E-05  nbox= 13
     iter. #   599  RMS(g-h-1)= 2.196E-05  nbox= 14
     iter. #   600  RMS(g-h-1)= 2.192E-05  nbox= 15
     iter. #   601  RMS(g-h-1)= 2.190E-05  nbox= 16
     iter. #   602  RMS(g-h-1)= 2.186E-05  nbox= 17
     iter. #   603  RMS(g-h-1)= 2.185E-05  nbox=  2
     iter. #   604  RMS(g-h-1)= 2.180E-05  nbox=  3
     iter. #   605  RMS(g-h-1)= 2.176E-05  nbox=  4
     iter. #   606  RMS(g-h-1)= 2.171E-05  nbox=  5
     iter. #   607  RMS(g-h-1)= 2.167E-05  nbox=  6
     iter. #   608  RMS(g-h-1)= 2.163E-05  nbox=  7
     iter. #   609  RMS(g-h-1)= 2.161E-05  nbox=  8
     iter. #   610  RMS(g-h-1)= 2.157E-05  nbox=  9
     iter. #   611  RMS(g-h-1)= 2.152E-05  nbox= 10
     iter. #   612  RMS(g-h-1)= 2.148E-05  nbox= 11
     iter. #   613  RMS(g-h-1)= 2.144E-05  nbox= 12
     iter. #   614  RMS(g-h-1)= 2.139E-05  nbox= 13
     iter. #   615  RMS(g-h-1)= 2.134E-05  nbox= 14
     iter. #   616  RMS(g-h-1)= 2.130E-05  nbox= 15
     iter. #   617  RMS(g-h-1)= 2.126E-05  nbox= 16
     iter. #   618  RMS(g-h-1)= 2.120E-05  nbox= 17
     iter. #   619  RMS(g-h-1)= 2.119E-05  nbox=  2
     iter. #   620  RMS(g-h-1)= 2.112E-05  nbox=  3
     iter. #   621  RMS(g-h-1)= 2.107E-05  nbox=  4
     iter. #   622  RMS(g-h-1)= 2.100E-05  nbox=  5
     iter. #   623  RMS(g-h-1)= 2.101E-05  nbox=  6
     iter. #   624  RMS(g-h-1)= 2.091E-05  nbox=  7
     iter. #   625  RMS(g-h-1)= 2.086E-05  nbox=  8
     iter. #   626  RMS(g-h-1)= 2.080E-05  nbox=  9
     iter. #   627  RMS(g-h-1)= 2.074E-05  nbox= 10
     iter. #   628  RMS(g-h-1)= 2.069E-05  nbox= 11
     iter. #   629  RMS(g-h-1)= 2.063E-05  nbox= 12
     iter. #   630  RMS(g-h-1)= 2.061E-05  nbox= 13
     iter. #   631  RMS(g-h-1)= 2.054E-05  nbox= 14
     iter. #   632  RMS(g-h-1)= 2.049E-05  nbox= 15
     iter. #   633  RMS(g-h-1)= 2.044E-05  nbox= 16
     iter. #   634  RMS(g-h-1)= 2.039E-05  nbox= 17
     iter. #   635  RMS(g-h-1)= 2.038E-05  nbox=  2
     iter. #   636  RMS(g-h-1)= 2.032E-05  nbox=  3
     iter. #   637  RMS(g-h-1)= 2.028E-05  nbox=  4
     iter. #   638  RMS(g-h-1)= 2.024E-05  nbox=  5
     iter. #   639  RMS(g-h-1)= 2.020E-05  nbox=  6
     iter. #   640  RMS(g-h-1)= 2.019E-05  nbox=  7
     iter. #   641  RMS(g-h-1)= 2.015E-05  nbox=  8
     iter. #   642  RMS(g-h-1)= 2.011E-05  nbox=  9
     iter. #   643  RMS(g-h-1)= 2.007E-05  nbox= 10
     iter. #   644  RMS(g-h-1)= 2.004E-05  nbox= 11
     iter. #   645  RMS(g-h-1)= 2.000E-05  nbox= 12
     iter. #   646  RMS(g-h-1)= 1.997E-05  nbox= 13
     iter. #   647  RMS(g-h-1)= 1.994E-05  nbox= 14
     iter. #   648  RMS(g-h-1)= 1.992E-05  nbox= 15
     iter. #   649  RMS(g-h-1)= 1.990E-05  nbox= 16
     iter. #   650  RMS(g-h-1)= 1.987E-05  nbox= 17
     iter. #   651  RMS(g-h-1)= 1.986E-05  nbox=  2
     iter. #   652  RMS(g-h-1)= 1.982E-05  nbox=  3
     iter. #   653  RMS(g-h-1)= 1.978E-05  nbox=  4
     iter. #   654  RMS(g-h-1)= 1.974E-05  nbox=  5
     iter. #   655  RMS(g-h-1)= 1.968E-05  nbox=  6
     iter. #   656  RMS(g-h-1)= 1.965E-05  nbox=  7
     iter. #   657  RMS(g-h-1)= 1.961E-05  nbox=  8
     iter. #   658  RMS(g-h-1)= 1.956E-05  nbox=  9
     iter. #   659  RMS(g-h-1)= 1.950E-05  nbox= 10
     iter. #   660  RMS(g-h-1)= 1.944E-05  nbox= 11
     iter. #   661  RMS(g-h-1)= 1.938E-05  nbox= 12
     iter. #   662  RMS(g-h-1)= 1.933E-05  nbox= 13
     iter. #   663  RMS(g-h-1)= 1.927E-05  nbox= 14
     iter. #   664  RMS(g-h-1)= 1.925E-05  nbox= 15
     iter. #   665  RMS(g-h-1)= 1.917E-05  nbox= 16
     iter. #   666  RMS(g-h-1)= 1.911E-05  nbox= 17
     iter. #   667  RMS(g-h-1)= 1.909E-05  nbox=  2
     iter. #   668  RMS(g-h-1)= 1.900E-05  nbox=  3
     iter. #   669  RMS(g-h-1)= 1.892E-05  nbox=  4
     iter. #   670  RMS(g-h-1)= 1.883E-05  nbox=  5
     iter. #   671  RMS(g-h-1)= 1.874E-05  nbox=  6
     iter. #   672  RMS(g-h-1)= 1.870E-05  nbox=  7
     iter. #   673  RMS(g-h-1)= 1.858E-05  nbox=  8
     iter. #   674  RMS(g-h-1)= 1.845E-05  nbox=  9
     iter. #   675  RMS(g-h-1)= 1.832E-05  nbox= 10
     iter. #   676  RMS(g-h-1)= 1.820E-05  nbox= 11
     iter. #   677  RMS(g-h-1)= 1.809E-05  nbox= 12
     iter. #   678  RMS(g-h-1)= 1.801E-05  nbox= 13
     iter. #   679  RMS(g-h-1)= 1.792E-05  nbox= 14
     iter. #   680  RMS(g-h-1)= 1.787E-05  nbox= 15
     iter. #   681  RMS(g-h-1)= 1.777E-05  nbox= 16
     iter. #   682  RMS(g-h-1)= 1.769E-05  nbox= 17
     iter. #   683  RMS(g-h-1)= 1.767E-05  nbox=  2
     iter. #   684  RMS(g-h-1)= 1.757E-05  nbox=  3
     iter. #   685  RMS(g-h-1)= 1.748E-05  nbox=  4
     iter. #   686  RMS(g-h-1)= 1.741E-05  nbox=  5
     iter. #   687  RMS(g-h-1)= 1.731E-05  nbox=  6
     iter. #   688  RMS(g-h-1)= 1.728E-05  nbox=  7
     iter. #   689  RMS(g-h-1)= 1.716E-05  nbox=  8
     iter. #   690  RMS(g-h-1)= 1.707E-05  nbox=  9
     iter. #   691  RMS(g-h-1)= 1.697E-05  nbox= 10
     iter. #   692  RMS(g-h-1)= 1.687E-05  nbox= 11
     iter. #   693  RMS(g-h-1)= 1.677E-05  nbox= 12
     iter. #   694  RMS(g-h-1)= 1.666E-05  nbox= 13
     iter. #   695  RMS(g-h-1)= 1.663E-05  nbox= 14
     iter. #   696  RMS(g-h-1)= 1.652E-05  nbox= 15
     iter. #   697  RMS(g-h-1)= 1.642E-05  nbox= 16
     iter. #   698  RMS(g-h-1)= 1.631E-05  nbox= 17
     iter. #   699  RMS(g-h-1)= 1.629E-05  nbox=  2
     iter. #   700  RMS(g-h-1)= 1.617E-05  nbox=  3
     iter. #   701  RMS(g-h-1)= 1.607E-05  nbox=  4
     iter. #   702  RMS(g-h-1)= 1.597E-05  nbox=  5
     iter. #   703  RMS(g-h-1)= 1.591E-05  nbox=  6
     iter. #   704  RMS(g-h-1)= 1.581E-05  nbox=  7
     iter. #   705  RMS(g-h-1)= 1.571E-05  nbox=  8
     iter. #   706  RMS(g-h-1)= 1.559E-05  nbox=  9
     iter. #   707  RMS(g-h-1)= 1.548E-05  nbox= 10
     iter. #   708  RMS(g-h-1)= 1.531E-05  nbox= 11
     iter. #   709  RMS(g-h-1)= 1.527E-05  nbox= 12
     iter. #   710  RMS(g-h-1)= 1.510E-05  nbox= 13
     iter. #   711  RMS(g-h-1)= 1.496E-05  nbox= 14
     iter. #   712  RMS(g-h-1)= 1.478E-05  nbox= 15
     iter. #   713  RMS(g-h-1)= 1.462E-05  nbox= 16
     iter. #   714  RMS(g-h-1)= 1.444E-05  nbox= 17
     iter. #   715  RMS(g-h-1)= 1.441E-05  nbox=  2
     iter. #   716  RMS(g-h-1)= 1.422E-05  nbox=  3
     iter. #   717  RMS(g-h-1)= 1.404E-05  nbox=  4
     iter. #   718  RMS(g-h-1)= 1.391E-05  nbox=  5
     iter. #   719  RMS(g-h-1)= 1.380E-05  nbox=  6
     iter. #   720  RMS(g-h-1)= 1.367E-05  nbox=  7
     iter. #   721  RMS(g-h-1)= 1.352E-05  nbox=  8
     iter. #   722  RMS(g-h-1)= 1.339E-05  nbox=  9
     iter. #   723  RMS(g-h-1)= 1.325E-05  nbox= 10
     iter. #   724  RMS(g-h-1)= 1.313E-05  nbox= 11
     iter. #   725  RMS(g-h-1)= 1.302E-05  nbox= 12
     iter. #   726  RMS(g-h-1)= 1.293E-05  nbox= 13
     iter. #   727  RMS(g-h-1)= 1.287E-05  nbox= 14
     iter. #   728  RMS(g-h-1)= 1.277E-05  nbox= 15
     iter. #   729  RMS(g-h-1)= 1.267E-05  nbox= 16
     iter. #   730  RMS(g-h-1)= 1.259E-05  nbox= 17
     iter. #   731  RMS(g-h-1)= 1.257E-05  nbox=  2
     iter. #   732  RMS(g-h-1)= 1.249E-05  nbox=  3
     iter. #   733  RMS(g-h-1)= 1.241E-05  nbox=  4
     iter. #   734  RMS(g-h-1)= 1.234E-05  nbox=  5
     iter. #   735  RMS(g-h-1)= 1.229E-05  nbox=  6
     iter. #   736  RMS(g-h-1)= 1.226E-05  nbox=  7
     iter. #   737  RMS(g-h-1)= 1.219E-05  nbox=  8
     iter. #   738  RMS(g-h-1)= 1.213E-05  nbox=  9
     iter. #   739  RMS(g-h-1)= 1.205E-05  nbox= 10
     iter. #   740  RMS(g-h-1)= 1.199E-05  nbox= 11
     iter. #   741  RMS(g-h-1)= 1.192E-05  nbox= 12
     iter. #   742  RMS(g-h-1)= 1.188E-05  nbox= 13
     iter. #   743  RMS(g-h-1)= 1.179E-05  nbox= 14
     iter. #   744  RMS(g-h-1)= 1.170E-05  nbox= 15
     iter. #   745  RMS(g-h-1)= 1.161E-05  nbox= 16
     iter. #   746  RMS(g-h-1)= 1.151E-05  nbox= 17
     iter. #   747  RMS(g-h-1)= 1.149E-05  nbox=  2
     iter. #   748  RMS(g-h-1)= 1.137E-05  nbox=  3
     iter. #   749  RMS(g-h-1)= 1.125E-05  nbox=  4
     iter. #   750  RMS(g-h-1)= 1.114E-05  nbox=  5
     iter. #   751  RMS(g-h-1)= 1.103E-05  nbox=  6
     iter. #   752  RMS(g-h-1)= 1.097E-05  nbox=  7
     iter. #   753  RMS(g-h-1)= 1.086E-05  nbox=  8
     iter. #   754  RMS(g-h-1)= 1.075E-05  nbox=  9
     iter. #   755  RMS(g-h-1)= 1.064E-05  nbox= 10
     iter. #   756  RMS(g-h-1)= 1.054E-05  nbox= 11
     iter. #   757  RMS(g-h-1)= 1.044E-05  nbox= 12
     iter. #   758  RMS(g-h-1)= 1.037E-05  nbox= 13
     iter. #   759  RMS(g-h-1)= 1.027E-05  nbox= 14
     iter. #   760  RMS(g-h-1)= 1.022E-05  nbox= 15
     iter. #   761  RMS(g-h-1)= 1.015E-05  nbox= 16
     iter. #   762  RMS(g-h-1)= 1.007E-05  nbox= 17
     iter. #   763  RMS(g-h-1)= 1.005E-05  nbox=  2
     iter. #   764  RMS(g-h-1)= 9.957E-06  nbox=  3
     iter. #   765  RMS(g-h-1)= 9.877E-06  nbox=  4
     iter. #   766  RMS(g-h-1)= 9.811E-06  nbox=  5
     iter. #   767  RMS(g-h-1)= 9.729E-06  nbox=  6
     iter. #   768  RMS(g-h-1)= 9.772E-06  nbox=  7
     iter. #   769  RMS(g-h-1)= 9.634E-06  nbox=  8
     iter. #   770  RMS(g-h-1)= 9.595E-06  nbox=  9
     iter. #   771  RMS(g-h-1)= 9.542E-06  nbox= 10
     iter. #   772  RMS(g-h-1)= 9.490E-06  nbox= 11
     iter. #   773  RMS(g-h-1)= 9.447E-06  nbox= 12
     iter. #   774  RMS(g-h-1)= 9.403E-06  nbox= 13
     iter. #   775  RMS(g-h-1)= 9.388E-06  nbox= 14
     iter. #   776  RMS(g-h-1)= 9.348E-06  nbox= 15
     iter. #   777  RMS(g-h-1)= 9.307E-06  nbox= 16
     iter. #   778  RMS(g-h-1)= 9.271E-06  nbox= 17
     iter. #   779  RMS(g-h-1)= 9.262E-06  nbox=  2
     iter. #   780  RMS(g-h-1)= 9.213E-06  nbox=  3
     iter. #   781  RMS(g-h-1)= 9.173E-06  nbox=  4
     iter. #   782  RMS(g-h-1)= 9.137E-06  nbox=  5
     iter. #   783  RMS(g-h-1)= 9.098E-06  nbox=  6
     iter. #   784  RMS(g-h-1)= 9.080E-06  nbox=  7
     iter. #   785  RMS(g-h-1)= 9.046E-06  nbox=  8
     iter. #   786  RMS(g-h-1)= 9.027E-06  nbox=  9
     iter. #   787  RMS(g-h-1)= 8.992E-06  nbox= 10
     iter. #   788  RMS(g-h-1)= 8.968E-06  nbox= 11
     iter. #   789  RMS(g-h-1)= 8.937E-06  nbox= 12
     iter. #   790  RMS(g-h-1)= 8.913E-06  nbox= 13
     iter. #   791  RMS(g-h-1)= 8.882E-06  nbox= 14
     iter. #   792  RMS(g-h-1)= 8.851E-06  nbox= 15
     iter. #   793  RMS(g-h-1)= 8.826E-06  nbox= 16
     iter. #   794  RMS(g-h-1)= 8.806E-06  nbox= 17
     iter. #   795  RMS(g-h-1)= 8.794E-06  nbox=  2
     iter. #   796  RMS(g-h-1)= 8.764E-06  nbox=  3
     iter. #   797  RMS(g-h-1)= 8.733E-06  nbox=  4
     iter. #   798  RMS(g-h-1)= 8.699E-06  nbox=  5
     iter. #   799  RMS(g-h-1)= 8.669E-06  nbox=  6
     iter. #   800  RMS(g-h-1)= 8.640E-06  nbox=  7
     iter. #   801  RMS(g-h-1)= 8.616E-06  nbox=  8
     iter. #   802  RMS(g-h-1)= 8.594E-06  nbox=  9
     iter. #   803  RMS(g-h-1)= 8.564E-06  nbox= 10
     iter. #   804  RMS(g-h-1)= 8.537E-06  nbox= 11
     iter. #   805  RMS(g-h-1)= 8.508E-06  nbox= 12
     iter. #   806  RMS(g-h-1)= 8.483E-06  nbox= 13
     iter. #   807  RMS(g-h-1)= 8.458E-06  nbox= 14
     iter. #   808  RMS(g-h-1)= 8.441E-06  nbox= 15
     iter. #   809  RMS(g-h-1)= 8.427E-06  nbox= 16
     iter. #   810  RMS(g-h-1)= 8.406E-06  nbox= 17
     iter. #   811  RMS(g-h-1)= 8.401E-06  nbox=  2
     iter. #   812  RMS(g-h-1)= 8.378E-06  nbox=  3
     iter. #   813  RMS(g-h-1)= 8.360E-06  nbox=  4
     iter. #   814  RMS(g-h-1)= 8.337E-06  nbox=  5
     iter. #   815  RMS(g-h-1)= 8.314E-06  nbox=  6
     iter. #   816  RMS(g-h-1)= 8.302E-06  nbox=  7
     iter. #   817  RMS(g-h-1)= 8.285E-06  nbox=  8
     iter. #   818  RMS(g-h-1)= 8.267E-06  nbox=  9
     iter. #   819  RMS(g-h-1)= 8.243E-06  nbox= 10
     iter. #   820  RMS(g-h-1)= 8.222E-06  nbox= 11
     iter. #   821  RMS(g-h-1)= 8.201E-06  nbox= 12
     iter. #   822  RMS(g-h-1)= 8.179E-06  nbox= 13
     iter. #   823  RMS(g-h-1)= 8.157E-06  nbox= 14
     iter. #   824  RMS(g-h-1)= 8.136E-06  nbox= 15
     iter. #   825  RMS(g-h-1)= 8.120E-06  nbox= 16
     iter. #   826  RMS(g-h-1)= 8.105E-06  nbox= 17
     iter. #   827  RMS(g-h-1)= 8.098E-06  nbox=  2
     iter. #   828  RMS(g-h-1)= 8.076E-06  nbox=  3
     iter. #   829  RMS(g-h-1)= 8.052E-06  nbox=  4
     iter. #   830  RMS(g-h-1)= 8.023E-06  nbox=  5
     iter. #   831  RMS(g-h-1)= 7.995E-06  nbox=  6
     iter. #   832  RMS(g-h-1)= 7.973E-06  nbox=  7
     iter. #   833  RMS(g-h-1)= 7.958E-06  nbox=  8
     iter. #   834  RMS(g-h-1)= 7.927E-06  nbox=  9
     iter. #   835  RMS(g-h-1)= 7.894E-06  nbox= 10
     iter. #   836  RMS(g-h-1)= 7.863E-06  nbox= 11
     iter. #   837  RMS(g-h-1)= 7.833E-06  nbox= 12
     iter. #   838  RMS(g-h-1)= 7.799E-06  nbox= 13
     iter. #   839  RMS(g-h-1)= 7.767E-06  nbox= 14
     iter. #   840  RMS(g-h-1)= 7.751E-06  nbox= 15
     iter. #   841  RMS(g-h-1)= 7.723E-06  nbox= 16
     iter. #   842  RMS(g-h-1)= 7.687E-06  nbox= 17
     iter. #   843  RMS(g-h-1)= 7.679E-06  nbox=  2
     iter. #   844  RMS(g-h-1)= 7.641E-06  nbox=  3
     iter. #   845  RMS(g-h-1)= 7.603E-06  nbox=  4
     iter. #   846  RMS(g-h-1)= 7.561E-06  nbox=  5
     iter. #   847  RMS(g-h-1)= 7.526E-06  nbox=  6
     iter. #   848  RMS(g-h-1)= 7.500E-06  nbox=  7
     iter. #   849  RMS(g-h-1)= 7.473E-06  nbox=  8
     iter. #   850  RMS(g-h-1)= 7.432E-06  nbox=  9
     iter. #   851  RMS(g-h-1)= 7.393E-06  nbox= 10
     iter. #   852  RMS(g-h-1)= 7.357E-06  nbox= 11
     iter. #   853  RMS(g-h-1)= 7.318E-06  nbox= 12
     iter. #   854  RMS(g-h-1)= 7.288E-06  nbox= 13
     iter. #   855  RMS(g-h-1)= 7.241E-06  nbox= 14
     iter. #   856  RMS(g-h-1)= 7.257E-06  nbox= 15
     iter. #   857  RMS(g-h-1)= 7.197E-06  nbox= 16
     iter. #   858  RMS(g-h-1)= 7.168E-06  nbox= 17
     iter. #   859  RMS(g-h-1)= 7.155E-06  nbox=  2
     iter. #   860  RMS(g-h-1)= 7.120E-06  nbox=  3
     iter. #   861  RMS(g-h-1)= 7.079E-06  nbox=  4
     iter. #   862  RMS(g-h-1)= 7.070E-06  nbox=  5
     iter. #   863  RMS(g-h-1)= 7.014E-06  nbox=  6
     iter. #   864  RMS(g-h-1)= 7.024E-06  nbox=  7
     iter. #   865  RMS(g-h-1)= 6.981E-06  nbox=  8
     iter. #   866  RMS(g-h-1)= 6.952E-06  nbox=  9
     iter. #   867  RMS(g-h-1)= 6.928E-06  nbox= 10
     iter. #   868  RMS(g-h-1)= 6.904E-06  nbox= 11
     iter. #   869  RMS(g-h-1)= 6.892E-06  nbox= 12
     iter. #   870  RMS(g-h-1)= 6.875E-06  nbox= 13
     iter. #   871  RMS(g-h-1)= 6.856E-06  nbox= 14
     iter. #   872  RMS(g-h-1)= 6.838E-06  nbox= 15
     iter. #   873  RMS(g-h-1)= 6.823E-06  nbox= 16
     iter. #   874  RMS(g-h-1)= 6.805E-06  nbox= 17
     iter. #   875  RMS(g-h-1)= 6.799E-06  nbox=  2
     iter. #   876  RMS(g-h-1)= 6.781E-06  nbox=  3
     iter. #   877  RMS(g-h-1)= 6.763E-06  nbox=  4
     iter. #   878  RMS(g-h-1)= 6.746E-06  nbox=  5
     iter. #   879  RMS(g-h-1)= 6.727E-06  nbox=  6
     iter. #   880  RMS(g-h-1)= 6.714E-06  nbox=  7
     iter. #   881  RMS(g-h-1)= 6.704E-06  nbox=  8
     iter. #   882  RMS(g-h-1)= 6.688E-06  nbox=  9
     iter. #   883  RMS(g-h-1)= 6.672E-06  nbox= 10
     iter. #   884  RMS(g-h-1)= 6.657E-06  nbox= 11
     iter. #   885  RMS(g-h-1)= 6.642E-06  nbox= 12
     iter. #   886  RMS(g-h-1)= 6.627E-06  nbox= 13
     iter. #   887  RMS(g-h-1)= 6.612E-06  nbox= 14
     iter. #   888  RMS(g-h-1)= 6.599E-06  nbox= 15
     iter. #   889  RMS(g-h-1)= 6.591E-06  nbox= 16
     iter. #   890  RMS(g-h-1)= 6.572E-06  nbox= 17
     iter. #   891  RMS(g-h-1)= 6.570E-06  nbox=  2
     iter. #   892  RMS(g-h-1)= 6.550E-06  nbox=  3
     iter. #   893  RMS(g-h-1)= 6.532E-06  nbox=  4
     iter. #   894  RMS(g-h-1)= 6.511E-06  nbox=  5
     iter. #   895  RMS(g-h-1)= 6.489E-06  nbox=  6
     iter. #   896  RMS(g-h-1)= 6.473E-06  nbox=  7
     iter. #   897  RMS(g-h-1)= 6.458E-06  nbox=  8
     iter. #   898  RMS(g-h-1)= 6.439E-06  nbox=  9
     iter. #   899  RMS(g-h-1)= 6.421E-06  nbox= 10
     iter. #   900  RMS(g-h-1)= 6.404E-06  nbox= 11
     iter. #   901  RMS(g-h-1)= 6.391E-06  nbox= 12
     iter. #   902  RMS(g-h-1)= 6.376E-06  nbox= 13
     iter. #   903  RMS(g-h-1)= 6.364E-06  nbox= 14
     iter. #   904  RMS(g-h-1)= 6.356E-06  nbox= 15
     iter. #   905  RMS(g-h-1)= 6.347E-06  nbox= 16
     iter. #   906  RMS(g-h-1)= 6.336E-06  nbox= 17
     iter. #   907  RMS(g-h-1)= 6.334E-06  nbox=  2
     iter. #   908  RMS(g-h-1)= 6.323E-06  nbox=  3
     iter. #   909  RMS(g-h-1)= 6.311E-06  nbox=  4
     iter. #   910  RMS(g-h-1)= 6.299E-06  nbox=  5

     End of Laue-RISM calculation


     convergence has been achieved in   910 iterations

[...]
     atom   19 type  1   force =    -0.00003710   -0.04857086   61.63146502
     atom   20 type  1   force =    -0.21187479   -0.12219930   65.57639233
     atom   21 type  1   force =     0.21190708   -0.12215349   65.57633737
     atom   22 type  1   force =     0.01674410   -0.00970398   62.69141071
     atom   23 type  1   force =     0.00005894    0.24465771   65.57630641
     atom   24 type  1   force =    -0.01680666   -0.00970655   62.69141136
     atom   25 type  1   force =     0.04221461    0.02425233   61.63137125
     atom   26 type  1   force =    -0.04219098    0.02419318   61.63145074
     atom   27 type  1   force =    -0.00002696    0.01923012   62.69143942
     atom   28 type  1   force =     0.00000809   -0.00002547  203.66913013
     atom   29 type  1   force =    -0.59539736   -0.75073390  202.92999728
     atom   30 type  1   force =     0.59538909   -0.75069242  202.92994885
     atom   31 type  1   force =    -0.94783665   -0.14016843  202.93000475
     atom   32 type  1   force =     0.00003575    0.00009819  203.63959402
     atom   33 type  1   force =     0.94781394   -0.14014626  202.93001411
     atom   34 type  1   force =    -0.35240731    0.89088171  202.92999074
     atom   35 type  1   force =     0.35244593    0.89087945  202.93003884
     atom   36 type  1   force =    -0.00003634   -0.00011112  204.41465514
     atom   37 type  2   force =     0.00002429    0.00001931   93.07336900
     atom   38 type  3   force =    -0.00003321   -0.00001376  164.49996432
     The local contribution  to forces
     atom    1 type  1   force =    -0.00000481   -0.00003466  217.60630560
     atom    2 type  1   force =     0.02323172   -0.02578472  217.76093530
     atom    3 type  1   force =    -0.02322809   -0.02579004  217.76093502
     atom    4 type  1   force =    -0.01068674    0.03297172  217.76092315
     atom    5 type  1   force =    -0.00000362   -0.00002753  217.72453336
     atom    6 type  1   force =     0.01068897    0.03296475  217.76090606
     atom    7 type  1   force =    -0.03392287   -0.00718250  217.76087739
     atom    8 type  1   force =     0.03391508   -0.00718328  217.76086027
     atom    9 type  1   force =     0.00000584    0.00005759  217.84928915
     atom   10 type  1   force =     0.02113658    0.01216793   77.50242942
     atom   11 type  1   force =    -0.00000837   -0.16425071   77.19879967
     atom   12 type  1   force =    -0.02112884    0.01211536   77.50245004
     atom   13 type  1   force =    -0.14222581    0.08199707   77.19878908
     atom   14 type  1   force =     0.14217784    0.08197843   77.19879319
     atom   15 type  1   force =     0.00004714    0.09787954   77.81841109
     atom   16 type  1   force =    -0.00004287   -0.02423129   77.50238977
     atom   17 type  1   force =     0.08487736   -0.04881518   77.81836754
     atom   18 type  1   force =    -0.08483400   -0.04884590   77.81837306
     atom   19 type  1   force =     0.00003705    0.04404040  -61.65612099
     atom   20 type  1   force =     0.22588342    0.13028733  -65.57815877
     atom   21 type  1   force =    -0.22591571    0.13024132  -65.57810396
     atom   22 type  1   force =    -0.02395586    0.01386782  -62.71957954
     atom   23 type  1   force =    -0.00005913   -0.26083347  -65.57807323
     atom   24 type  1   force =     0.02401858    0.01387032  -62.71958064
     atom   25 type  1   force =    -0.03829119   -0.02198720  -61.65602726
     atom   26 type  1   force =     0.03826739   -0.02192798  -61.65610718
     atom   27 type  1   force =     0.00002706   -0.02755771  -62.71960834
     atom   28 type  1   force =    -0.00000960    0.00002553 -203.70246997
     atom   29 type  1   force =     0.58172426    0.72787734 -203.00850553
     atom   30 type  1   force =    -0.58171450    0.72783477 -203.00845371
     atom   31 type  1   force =     0.92120494    0.13975523 -203.00851246
     atom   32 type  1   force =    -0.00003560   -0.00009846 -203.65998980
     atom   33 type  1   force =    -0.92118258    0.13973153 -203.00852217
     atom   34 type  1   force =     0.33944876   -0.86761030 -203.00849675
     atom   35 type  1   force =    -0.33948907   -0.86760942 -203.00854859
     atom   36 type  1   force =     0.00003805    0.00011181 -204.44748668
     atom   37 type  2   force =    -0.00002114   -0.00001786  -93.97434132
     atom   38 type  3   force =     0.00002446    0.00000923 -161.70223908
     The core correction contribution to forces
     atom    1 type  1   force =    -0.00000001   -0.00000011    0.01936420
     atom    2 type  1   force =    -0.00023007    0.00003212    0.01939968
     atom    3 type  1   force =     0.00023007    0.00003213    0.01939967
     atom    4 type  1   force =    -0.00008713   -0.00021536    0.01939970
     atom    5 type  1   force =     0.00000001    0.00000001    0.01895145
     atom    6 type  1   force =     0.00008712   -0.00021536    0.01939968
     atom    7 type  1   force =     0.00014295    0.00018322    0.01939959
     atom    8 type  1   force =    -0.00014295    0.00018322    0.01939959
     atom    9 type  1   force =    -0.00000001    0.00000008    0.01978301
     atom   10 type  1   force =     0.00023750    0.00013708    0.00009092
     atom   11 type  1   force =    -0.00000001   -0.00063468   -0.00037874
     atom   12 type  1   force =    -0.00023749    0.00013699    0.00009089
     atom   13 type  1   force =    -0.00054965    0.00031712   -0.00037884
     atom   14 type  1   force =     0.00054956    0.00031708   -0.00037888
     atom   15 type  1   force =     0.00000007    0.00028972    0.00065268
     atom   16 type  1   force =    -0.00000007   -0.00027395    0.00009083
     atom   17 type  1   force =     0.00025110   -0.00014467    0.00065270
     atom   18 type  1   force =    -0.00025102   -0.00014472    0.00065275
     atom   19 type  1   force =     0.00000007   -0.00036325   -0.00017927
     atom   20 type  1   force =     0.00156326    0.00090237    0.00099391
     atom   21 type  1   force =    -0.00156333    0.00090232    0.00099391
     atom   22 type  1   force =     0.00007778   -0.00004486    0.00049413
     atom   23 type  1   force =    -0.00000009   -0.00180512    0.00099389
     atom   24 type  1   force =    -0.00007768   -0.00004484    0.00049413
     atom   25 type  1   force =     0.00031438    0.00018167   -0.00017937
     atom   26 type  1   force =    -0.00031440    0.00018176   -0.00017933
     atom   27 type  1   force =     0.00000003    0.00008996    0.00049417
     atom   28 type  1   force =    -0.00000004    0.00000004   -0.01960649
     atom   29 type  1   force =    -0.00086740   -0.00167282   -0.02004499
     atom   30 type  1   force =     0.00086743   -0.00167288   -0.02004498
     atom   31 type  1   force =    -0.00188244    0.00008507   -0.02004492
     atom   32 type  1   force =    -0.00000013   -0.00000015    0.02395644
     atom   33 type  1   force =     0.00188241    0.00008504   -0.02004488
     atom   34 type  1   force =    -0.00101506    0.00158778   -0.02004489
     atom   35 type  1   force =     0.00101499    0.00158773   -0.02004486
     atom   36 type  1   force =     0.00000006    0.00000018   -0.02024771
     atom   37 type  2   force =     0.00000008    0.00000004   -0.01668832
     atom   38 type  3   force =    -0.00000008   -0.00000003    0.02221563
     The Hubbard contrib.    to forces
     atom    1 type  1   force =     0.00000000    0.00000000    0.00000000
     atom    2 type  1   force =     0.00000000    0.00000000    0.00000000
     atom    3 type  1   force =     0.00000000    0.00000000    0.00000000
     atom    4 type  1   force =     0.00000000    0.00000000    0.00000000
     atom    5 type  1   force =     0.00000000    0.00000000    0.00000000
     atom    6 type  1   force =     0.00000000    0.00000000    0.00000000
     atom    7 type  1   force =     0.00000000    0.00000000    0.00000000
     atom    8 type  1   force =     0.00000000    0.00000000    0.00000000
     atom    9 type  1   force =     0.00000000    0.00000000    0.00000000
     atom   10 type  1   force =     0.00000000    0.00000000    0.00000000
     atom   11 type  1   force =     0.00000000    0.00000000    0.00000000
     atom   12 type  1   force =     0.00000000    0.00000000    0.00000000
     atom   13 type  1   force =     0.00000000    0.00000000    0.00000000
     atom   14 type  1   force =     0.00000000    0.00000000    0.00000000
     atom   15 type  1   force =     0.00000000    0.00000000    0.00000000
     atom   16 type  1   force =     0.00000000    0.00000000    0.00000000
     atom   17 type  1   force =     0.00000000    0.00000000    0.00000000
     atom   18 type  1   force =     0.00000000    0.00000000    0.00000000
     atom   19 type  1   force =     0.00000000    0.00000000    0.00000000
     atom   20 type  1   force =     0.00000000    0.00000000    0.00000000
     atom   21 type  1   force =     0.00000000    0.00000000    0.00000000
     atom   22 type  1   force =     0.00000000    0.00000000    0.00000000
     atom   23 type  1   force =     0.00000000    0.00000000    0.00000000
     atom   24 type  1   force =     0.00000000    0.00000000    0.00000000
     atom   25 type  1   force =     0.00000000    0.00000000    0.00000000
     atom   26 type  1   force =     0.00000000    0.00000000    0.00000000
     atom   27 type  1   force =     0.00000000    0.00000000    0.00000000
     atom   28 type  1   force =     0.00000000    0.00000000    0.00000000
     atom   29 type  1   force =     0.00000000    0.00000000    0.00000000
     atom   30 type  1   force =     0.00000000    0.00000000    0.00000000
     atom   31 type  1   force =     0.00000000    0.00000000    0.00000000
     atom   32 type  1   force =     0.00000000    0.00000000    0.00000000
     atom   33 type  1   force =     0.00000000    0.00000000    0.00000000
     atom   34 type  1   force =     0.00000000    0.00000000    0.00000000
     atom   35 type  1   force =     0.00000000    0.00000000    0.00000000
     atom   36 type  1   force =     0.00000000    0.00000000    0.00000000
     atom   37 type  2   force =     0.00000000    0.00000000    0.00000000
     atom   38 type  3   force =     0.00000000    0.00000000    0.00000000
     The SCF correction term to forces
     atom    1 type  1   force =     0.00000000    0.00000000    0.00000000
     atom    2 type  1   force =     0.00000000    0.00000000    0.00000000
     atom    3 type  1   force =     0.00000000    0.00000000    0.00000000
     atom    4 type  1   force =     0.00000000    0.00000000    0.00000000
     atom    5 type  1   force =     0.00000000    0.00000000    0.00000000
     atom    6 type  1   force =     0.00000000    0.00000000    0.00000000
     atom    7 type  1   force =     0.00000000    0.00000000    0.00000000
     atom    8 type  1   force =     0.00000000    0.00000000    0.00000000
     atom    9 type  1   force =     0.00000000    0.00000000    0.00000000
     atom   10 type  1   force =    -0.00000005    0.00000002   -0.00000136
     atom   11 type  1   force =    -0.00000001    0.00000007   -0.00000170
     atom   12 type  1   force =     0.00000002   -0.00000009   -0.00000138
     atom   13 type  1   force =    -0.00000003   -0.00000007   -0.00000172
     atom   14 type  1   force =    -0.00000011   -0.00000014   -0.00000174
     atom   15 type  1   force =     0.00000015   -0.00000009   -0.00000136
     atom   16 type  1   force =    -0.00000008    0.00000012   -0.00000142
     atom   17 type  1   force =     0.00000004    0.00000012   -0.00000139
     atom   18 type  1   force =     0.00000007    0.00000003   -0.00000133
     atom   19 type  1   force =     0.00000005   -0.00000023   -0.00000229
     atom   20 type  1   force =    -0.00000017   -0.00000013   -0.00000238
     atom   21 type  1   force =     0.00000010   -0.00000019   -0.00000235
     atom   22 type  1   force =    -0.00000016    0.00000012   -0.00000207
     atom   23 type  1   force =    -0.00000011    0.00000015   -0.00000234
     atom   24 type  1   force =     0.00000025    0.00000008   -0.00000203
     atom   25 type  1   force =     0.00000008    0.00000011   -0.00000233
     atom   26 type  1   force =    -0.00000018    0.00000024   -0.00000226
     atom   27 type  1   force =     0.00000007   -0.00000012   -0.00000202
     atom   28 type  1   force =     0.00000007    0.00000006   -0.00000174
     atom   29 type  1   force =     0.00000008   -0.00000053   -0.00000146
     atom   30 type  1   force =    -0.00000013   -0.00000050   -0.00000163
     atom   31 type  1   force =    -0.00000038    0.00000030   -0.00000155
     atom   32 type  1   force =    -0.00000007   -0.00000007   -0.00000178
     atom   33 type  1   force =     0.00000040    0.00000030   -0.00000151
     atom   34 type  1   force =    -0.00000050    0.00000018   -0.00000158
     atom   35 type  1   force =     0.00000054    0.00000027   -0.00000138
     atom   36 type  1   force =    -0.00000003    0.00000006   -0.00000075
     atom   37 type  2   force =     0.00000000   -0.00000001   -0.00000011
     atom   38 type  3   force =     0.00000001   -0.00000001   -0.00000105

     3D-RISM Solvation contribution to forces:
     atom    1 type  1   force =     0.00000000    0.00000000    0.00000126
     atom    2 type  1   force =     0.00000009    0.00000557    0.00000203
     atom    3 type  1   force =    -0.00000010    0.00000557    0.00000202
     atom    4 type  1   force =     0.00000487   -0.00000270    0.00000202
     atom    5 type  1   force =     0.00000000    0.00000000    0.00001115
     atom    6 type  1   force =    -0.00000487   -0.00000270    0.00000203
     atom    7 type  1   force =     0.00000478   -0.00000287    0.00000202
     atom    8 type  1   force =    -0.00000478   -0.00000287    0.00000204
     atom    9 type  1   force =    -0.00000001    0.00000000   -0.00000810
     atom   10 type  1   force =     0.00001935    0.00001115    0.00001282
     atom   11 type  1   force =    -0.00000002    0.00003878    0.00004045
     atom   12 type  1   force =    -0.00001933    0.00001119    0.00001279
     atom   13 type  1   force =     0.00003359   -0.00001939    0.00004045
     atom   14 type  1   force =    -0.00003356   -0.00001936    0.00004048
     atom   15 type  1   force =    -0.00000002   -0.00003406   -0.00003780
     atom   16 type  1   force =     0.00000004   -0.00002234    0.00001282
     atom   17 type  1   force =    -0.00002952    0.00001702   -0.00003778
     atom   18 type  1   force =     0.00002948    0.00001702   -0.00003784
     atom   19 type  1   force =     0.00000003    0.00004494   -0.00006282
     atom   20 type  1   force =     0.00000958    0.00000549    0.00032662
     atom   21 type  1   force =    -0.00000962    0.00000572    0.00032655
     atom   22 type  1   force =     0.00042072   -0.00024304   -0.00020046
     atom   23 type  1   force =     0.00000018   -0.00001109    0.00032667
     atom   24 type  1   force =    -0.00042090   -0.00024289   -0.00020012
     atom   25 type  1   force =    -0.00003876   -0.00002245   -0.00006306
     atom   26 type  1   force =     0.00003897   -0.00002253   -0.00006262
     atom   27 type  1   force =    -0.00000022    0.00048586   -0.00020038
     atom   28 type  1   force =     0.00000134   -0.00000011   -0.01183259
     atom   29 type  1   force =     0.00056796    0.00287440    0.00360092
     atom   30 type  1   force =    -0.00056931    0.00287574    0.00359861
     atom   31 type  1   force =     0.00277409   -0.00094540    0.00360005
     atom   32 type  1   force =     0.00000028    0.00000035   -0.00714162
     atom   33 type  1   force =    -0.00277438   -0.00094404    0.00360058
     atom   34 type  1   force =     0.00220640   -0.00193076    0.00359901
     atom   35 type  1   force =    -0.00220489   -0.00192986    0.00360189
     atom   36 type  1   force =    -0.00000152   -0.00000032   -0.01513393
     atom   37 type  2   force =     0.00000021    0.00000024   -0.02556856
     atom   38 type  3   force =     0.00000032    0.00000036   -0.07323646

     Total force =     0.059539     Total SCF correction =     0.000009

     Total 3D-RISM Solvation Force =     0.081042

     Writing output data file Cu-vib.save
 
     init_run     :    398.09s CPU    202.81s WALL (       1 calls)
     electrons    :   7532.50s CPU   3851.92s WALL (       1 calls)
     forces       :     26.86s CPU     13.37s WALL (       1 calls)

     Called by init_run:
     wfcinit      :     58.11s CPU     30.20s WALL (       1 calls)
     wfcinit:atom :      0.02s CPU      0.02s WALL (      34 calls)
     wfcinit:wfcr :     57.77s CPU     29.86s WALL (      34 calls)
     potinit      :    330.33s CPU    167.96s WALL (       1 calls)

     Called by electrons:
     c_bands      :   4223.14s CPU   2177.97s WALL (      37 calls)
     sum_band     :    592.42s CPU    307.75s WALL (      37 calls)
     v_of_rho     :     51.29s CPU     24.17s WALL (      37 calls)
     v_h          :      0.58s CPU      0.58s WALL (      74 calls)
     v_xc         :     51.61s CPU     24.48s WALL (      38 calls)
     newd         :      1.34s CPU      1.34s WALL (      37 calls)
     PAW_pot      :      4.08s CPU      3.01s WALL (      37 calls)
     mix_rho      :      1.65s CPU      0.62s WALL (      37 calls)

     Called by c_bands:
     init_us_2    :      1.66s CPU      1.66s WALL (    2584 calls)
     crmmdiagg    :   2699.15s CPU   1377.27s WALL (    1258 calls)
     wfcrot       :   1496.28s CPU    783.71s WALL (    1224 calls)
     gsorth       :     82.25s CPU     44.20s WALL (    1258 calls)

     Called by sum_band:
     sum_band:bec :      2.66s CPU      1.37s WALL (    1258 calls)
     addusdens    :      1.34s CPU      1.34s WALL (      37 calls)

     Called by *rmmdiagg:
     h_psi        :   3784.45s CPU   1929.34s WALL (   10750 calls)
     s_psi        :     49.30s CPU     29.13s WALL (   10750 calls)
     cdiaghg      :    151.55s CPU     88.36s WALL (    1224 calls)
     cdiaghg:chol :      3.86s CPU      3.10s WALL (    1224 calls)
     cdiaghg:inve :      4.04s CPU      2.00s WALL (    1224 calls)
     cdiaghg:para :      2.38s CPU      2.15s WALL (    2448 calls)

     Called by h_psi:
     h_psi:pot    :   3780.93s CPU   1927.82s WALL (   10750 calls)
     h_psi:calbec :    127.82s CPU     73.51s WALL (   10750 calls)
     vloc_psi     :   3590.40s CPU   1824.21s WALL (   10750 calls)
     add_vuspsi   :     62.29s CPU     29.91s WALL (   10750 calls)

     General routines
     calbec       :    163.86s CPU     94.42s WALL (   12144 calls)
     fft          :     37.32s CPU     17.39s WALL (    2615 calls)
     ffts         :      0.17s CPU      0.17s WALL (      74 calls)
     fftw         :   4065.96s CPU   2061.87s WALL ( 2129844 calls)
     fftc         :      0.40s CPU      0.17s WALL (      74 calls)
     interpolate  :      1.68s CPU      0.66s WALL (      74 calls)
 
     Parallel routines
     fft_scatter  :   2784.21s CPU   1524.16s WALL ( 2235184 calls)

     PAW routines
     PAW_pot      :      4.08s CPU      3.01s WALL (      37 calls)

     RISM routines
     1DRISM_pre   :     28.55s CPU     14.19s WALL (       1 calls)
     1DRISM_run   :      0.44s CPU      1.17s WALL (       1 calls)
     3DRISM_pre   :     10.64s CPU      6.31s WALL (       1 calls)
     3DRISM_run   :   2974.79s CPU   1496.06s WALL (      37 calls)
     3DRISM_for   :      6.08s CPU      2.96s WALL (       1 calls)
     3DRISM_vsol  :      0.23s CPU      0.24s WALL (      37 calls)
 
     PWSCF        :     2h15m CPU        1h 9m WALL

 
   This run was terminated on:  14:16:36   9Nov2025            

=------------------------------------------------------------------------------=
   JOB DONE.
=------------------------------------------------------------------------------=
