
     Program PWSCF v.6.1 starts on  9Feb2026 at 14:55:49 

     This program is part of the open-source Quantum ESPRESSO suite
     for quantum simulation of materials; please cite
         "P. Giannozzi et al., J. Phys.:Condens. Matter 21 395502 (2009);
          URL http://www.quantum-espresso.org", 
     in publications or presentations arising from this work. More details at
     http://www.quantum-espresso.org/quote

     Parallel version (MPI & OpenMP), running on     192 processor cores
     Number of MPI processes:                96
     Threads/MPI process:                     2
     R & G space division:  proc/nbgrp/npool/nimage =      96
     Reading input from espresso.pwi
Warning: card &IONS ignored
Warning: card    ION_DYNAMICS     = 'BFGS' ignored
Warning: card / ignored
Warning: card &CELL ignored
Warning: card / ignored
Warning: card &FCP ignored
Warning: card / ignored
Warning: card &RISM ignored
Warning: card / ignored

     Current dimensions of program PWSCF are:
     Max number of different atomic species (ntypx) = 10
     Max number of k-points (npk) =  40000
     Max angular momentum in pseudopotentials (lmaxx) =  3

     IMPORTANT: XC functional enforced from input :
     Exchange-correlation      = VDW-DF2 ( 1  4 13  0 2 0)
     Any further DFT definition will be discarded
     Please, verify this is what you really want

               file O.pbe-n-kjpaw_psl.1.0.0.UPF: wavefunction(s)  2S 2P renormalized
               file H.pbe-kjpaw_psl.1.0.0.UPF: wavefunction(s)  1S renormalized

     Subspace diagonalization in iterative solution of the eigenvalue problem:
     one sub-group per band group will be used
     ELPA distributed-memory algorithm (size of sub-group:  6*  6 procs)

 
     Parallelization info
     --------------------
     sticks:   dense  smooth     PW     G-vecs:    dense   smooth      PW
     Min         740     296     74               148294    37508    4688
     Max         741     297     76               148300    37516    4690
     Sum       71041   28417   7129             14236565  3601159  450127
 


     bravais-lattice index     =            0
     lattice parameter (alat)  =      37.7945  a.u.
     unit-cell volume          =   53986.6738 (a.u.)^3
     number of atoms/cell      =            3
     number of atomic types    =            2
     number of electrons       =         8.00
     number of Kohn-Sham states=           40
     kinetic-energy cutoff     =      62.4738  Ry
     charge density cutoff     =     624.7385  Ry
     convergence threshold     =      7.3E-12
     mixing beta               =       0.3333
     number of iterations used =           12  plain     mixing
     Exchange-correlation      = VDW-DF2 ( 1  4 13  0 2 0)

     Effective Screening Medium Method
     =================================
     Boundary Conditions: Vacuum-Slab-Vacuum
     total charge in unit cell        =   0.0000
     grid points for fit at edges     =        4 
 

     celldm(1)=  37.794522  celldm(2)=   0.000000  celldm(3)=   0.000000
     celldm(4)=   0.000000  celldm(5)=   0.000000  celldm(6)=   0.000000

     crystal axes: (cart. coord. in units of alat)
               a(1) = (   1.000000   0.000000   0.000000 )  
               a(2) = (   0.000000   1.000000   0.000000 )  
               a(3) = (   0.000000   0.000000   1.000000 )  

     reciprocal axes: (cart. coord. in units 2 pi/alat)
               b(1) = (  1.000000  0.000000  0.000000 )  
               b(2) = (  0.000000  1.000000  0.000000 )  
               b(3) = (  0.000000  0.000000  1.000000 )  


     PseudoPot. # 1 for  O read from file:
     /work/gf93/f93007/QE/pseudo/O.pbe-n-kjpaw_psl.1.0.0.UPF
     MD5 check sum: c61d840054b6bba219e553541e327118
     Pseudo is Projector augmented-wave + core cor, Zval =  6.0
     Generated using "atomic" code by A. Dal Corso  v.6.1 svn rev. 13369
     Shape of augmentation charge: PSQ
     Using radial grid of 1095 points,  4 beta functions with: 
                l(1) =   0
                l(2) =   0
                l(3) =   1
                l(4) =   1
     Q(r) pseudized with 0 coefficients 


     PseudoPot. # 2 for  H read from file:
     /work/gf93/f93007/QE/pseudo/H.pbe-kjpaw_psl.1.0.0.UPF
     MD5 check sum: 29603ce6b94be0cf73e39cbb1f958d8e
     Pseudo is Projector augmented-wave, Zval =  1.0
     Generated using "atomic" code by A. Dal Corso  v.6.1 svn rev. 13369
     Shape of augmentation charge: PSQ
     Using radial grid of  929 points,  2 beta functions with: 
                l(1) =   0
                l(2) =   0
     Q(r) pseudized with 0 coefficients 


     vdW kernel table read from file vdW_kernel_table
     MD5 check sum: 6d69797d2e858e93e031fb7d16d30e50

     atomic species   valence    mass     pseudopotential
        O              6.00    15.99900      O( 1.00)
        H              1.00     1.00800      H( 1.00)

      2 Sym. Ops. (no inversion) found


                                    s                        frac. trans.

      isym =  1     identity                                     

 cryst.   s( 1) = (     1          0          0      )
                  (     0          1          0      )
                  (     0          0          1      )

 cart.    s( 1) = (  1.0000000  0.0000000  0.0000000 )
                  (  0.0000000  1.0000000  0.0000000 )
                  (  0.0000000  0.0000000  1.0000000 )


      isym =  2     inv. 180 deg rotation - cart. axis [1,0,0]   

 cryst.   s( 2) = (    -1          0          0      )
                  (     0          1          0      )
                  (     0          0          1      )

 cart.    s( 2) = ( -1.0000000  0.0000000  0.0000000 )
                  (  0.0000000  1.0000000  0.0000000 )
                  (  0.0000000  0.0000000  1.0000000 )


   Cartesian axes

     site n.     atom                  positions (alat units)
         1           O   tau(   1) = (   0.5000000   0.5000000   0.0001590  )
         2           H   tau(   2) = (   0.5000000   0.5384535   0.0297364  )
         3           H   tau(   3) = (   0.5000000   0.4620465   0.0297364  )

   Crystallographic axes

     site n.     atom                  positions (cryst. coord.)
         1           O   tau(   1) = (  0.5000000  0.5000000  0.0001590  )
         2           H   tau(   2) = (  0.5000000  0.5384535  0.0297364  )
         3           H   tau(   3) = (  0.5000000  0.4620465  0.0297364  )

     number of k points=     1
                       cart. coord. in units 2pi/alat
        k(    1) = (   0.0000000   0.0000000   0.0000000), wk =   2.0000000

                       cryst. coord.
        k(    1) = (   0.0000000   0.0000000   0.0000000), wk =   2.0000000

     Dense  grid: 14236565 G-vectors     FFT dimensions: ( 320, 320, 320)

     Smooth grid:  3601159 G-vectors     FFT dimensions: ( 192, 192, 192)

     Estimated max dynamical RAM per process >     488.77MB

     Estimated total allocated dynamical RAM >   46922.27MB

     Initial potential from superposition of free atoms
     Check: negative starting charge=   -0.001153

     starting charge    7.99998, renormalised to    8.00000

     negative rho (up, down):  1.153E-03 0.000E+00


     %%%%%%%%%%%%%%%%%%%%%%%%%%%%%%%%%%%%%%%%%%%%%%%%%%%%%%%%%%%%%%%%%%%%%%%%
     %                                                                      %
     % You are using vdW-DF, which was implemented by the Thonhauser group. %
     % Please cite the following two papers that made this development      %
     % possible and the two reviews that describe the various versions:     %
     %                                                                      %
     %   T. Thonhauser et al., PRL 115, 136402 (2015).                      %
     %   T. Thonhauser et al., PRB 76, 125112 (2007).                       %
     %   K. Berland et al., Rep. Prog. Phys. 78, 066501 (2015).             %
     %   D.C. Langreth et al., J. Phys.: Condens. Matter 21, 084203 (2009). %
     %                                                                      %
     %                                                                      %
     % If you are calculating the stress with vdW-DF, please also cite:     %
     %                                                                      %
     %   R. Sabatini et al., J. Phys.: Condens. Matter 24, 424209 (2012).   %
     %                                                                      %
     %%%%%%%%%%%%%%%%%%%%%%%%%%%%%%%%%%%%%%%%%%%%%%%%%%%%%%%%%%%%%%%%%%%%%%%%


     Carrying out vdW-DF run using the following parameters:
     Nqs    =  20  Npoints =  1024  r_max =  100.000
     q_mesh =  0.00001000  0.04494208  0.09755937  0.15916263
               0.23128650  0.31572767  0.41458969  0.53033537
               0.66584808  0.82450364  1.01025438  1.22772762
               1.48234092  1.78043706  2.12944203  2.53805004
               3.01644009  3.57652955  4.23227104  5.00000000


     -----------------------------------------------
     Non-local corr. energy    =       0.13359674 Ry
     -----------------------------------------------

     Starting wfc are    6 randomized atomic wfcs +   34 random wfc
     Checking if some PAW data can be deallocated... 
       node    0, deallocated PAW data for type:  2
       node    1, deallocated PAW data for type:  2
       node    2, deallocated PAW data for type:  2
       node    3, deallocated PAW data for type:  2
       node    4, deallocated PAW data for type:  2
       node    5, deallocated PAW data for type:  2
       node    6, deallocated PAW data for type:  2
       node    7, deallocated PAW data for type:  2
       node    8, deallocated PAW data for type:  2
       node    9, deallocated PAW data for type:  2
       node   10, deallocated PAW data for type:  2
       node   11, deallocated PAW data for type:  2
       node   12, deallocated PAW data for type:  2
       node   13, deallocated PAW data for type:  2
       node   14, deallocated PAW data for type:  2
       node   15, deallocated PAW data for type:  2
       node   16, deallocated PAW data for type:  2
       node   17, deallocated PAW data for type:  2
       node   18, deallocated PAW data for type:  2
       node   19, deallocated PAW data for type:  2
       node   20, deallocated PAW data for type:  2
       node   21, deallocated PAW data for type:  2
       node   22, deallocated PAW data for type:  2
       node   23, deallocated PAW data for type:  2
       node   24, deallocated PAW data for type:  2
       node   25, deallocated PAW data for type:  2
       node   26, deallocated PAW data for type:  2
       node   27, deallocated PAW data for type:  2
       node   28, deallocated PAW data for type:  2
       node   29, deallocated PAW data for type:  2
       node   30, deallocated PAW data for type:  2
       node   31, deallocated PAW data for type:  2
       node   32, deallocated PAW data for type:  1
       node   33, deallocated PAW data for type:  1
       node   34, deallocated PAW data for type:  1
       node   35, deallocated PAW data for type:  1
       node   36, deallocated PAW data for type:  1
       node   37, deallocated PAW data for type:  1
       node   38, deallocated PAW data for type:  1
       node   39, deallocated PAW data for type:  1
       node   40, deallocated PAW data for type:  1
       node   41, deallocated PAW data for type:  1
       node   42, deallocated PAW data for type:  1
       node   43, deallocated PAW data for type:  1
       node   44, deallocated PAW data for type:  1
       node   45, deallocated PAW data for type:  1
       node   46, deallocated PAW data for type:  1
       node   47, deallocated PAW data for type:  1
       node   48, deallocated PAW data for type:  1
       node   49, deallocated PAW data for type:  1
       node   50, deallocated PAW data for type:  1
       node   51, deallocated PAW data for type:  1
       node   52, deallocated PAW data for type:  1
       node   53, deallocated PAW data for type:  1
       node   54, deallocated PAW data for type:  1
       node   55, deallocated PAW data for type:  1
       node   56, deallocated PAW data for type:  1
       node   57, deallocated PAW data for type:  1
       node   58, deallocated PAW data for type:  1
       node   59, deallocated PAW data for type:  1
       node   60, deallocated PAW data for type:  1
       node   61, deallocated PAW data for type:  1
       node   62, deallocated PAW data for type:  1
       node   63, deallocated PAW data for type:  1
       node   64, deallocated PAW data for type:  1
       node   65, deallocated PAW data for type:  1
       node   66, deallocated PAW data for type:  1
       node   67, deallocated PAW data for type:  1
       node   68, deallocated PAW data for type:  1
       node   69, deallocated PAW data for type:  1
       node   70, deallocated PAW data for type:  1
       node   71, deallocated PAW data for type:  1
       node   72, deallocated PAW data for type:  1
       node   73, deallocated PAW data for type:  1
       node   74, deallocated PAW data for type:  1
       node   75, deallocated PAW data for type:  1
       node   76, deallocated PAW data for type:  1
       node   77, deallocated PAW data for type:  1
       node   78, deallocated PAW data for type:  1
       node   79, deallocated PAW data for type:  1
       node   80, deallocated PAW data for type:  1
       node   81, deallocated PAW data for type:  1
       node   82, deallocated PAW data for type:  1
       node   83, deallocated PAW data for type:  1
       node   84, deallocated PAW data for type:  1
       node   85, deallocated PAW data for type:  1
       node   86, deallocated PAW data for type:  1
       node   87, deallocated PAW data for type:  1
       node   88, deallocated PAW data for type:  1
       node   89, deallocated PAW data for type:  1
       node   90, deallocated PAW data for type:  1
       node   91, deallocated PAW data for type:  1
       node   92, deallocated PAW data for type:  1
       node   93, deallocated PAW data for type:  1
       node   94, deallocated PAW data for type:  1
       node   95, deallocated PAW data for type:  1

     total cpu time spent up to now is       25.5 secs

     per-process dynamical memory:   235.5 Mb

     Self-consistent Calculation

     iteration #  1     ecut=    62.47 Ry     beta=0.33
     Davidson diagonalization with overlap
     ethr =  1.00E-02,  avg # of iterations = 12.0

     negative rho (up, down):  1.367E-03 0.000E+00


     -----------------------------------------------
     Non-local corr. energy    =       0.13512492 Ry
     -----------------------------------------------


     total cpu time spent up to now is       35.1 secs

     total energy              =     -44.94346279 Ry
     Harris-Foulkes estimate   =     -45.19910175 Ry
     estimated scf accuracy    <       0.54265611 Ry

     iteration #  2     ecut=    62.47 Ry     beta=0.33
     Davidson diagonalization with overlap
     ethr =  6.78E-03,  avg # of iterations =  1.0

     negative rho (up, down):  9.025E-04 0.000E+00


     -----------------------------------------------
     Non-local corr. energy    =       0.13570781 Ry
     -----------------------------------------------


     total cpu time spent up to now is       41.9 secs

     total energy              =     -44.98569583 Ry
     Harris-Foulkes estimate   =     -45.00574273 Ry
     estimated scf accuracy    <       0.04876442 Ry

     iteration #  3     ecut=    62.47 Ry     beta=0.33
     Davidson diagonalization with overlap
     ethr =  6.10E-04,  avg # of iterations =  6.0

     negative rho (up, down):  1.518E-03 0.000E+00


     -----------------------------------------------
     Non-local corr. energy    =       0.13506842 Ry
     -----------------------------------------------


     total cpu time spent up to now is       49.8 secs

     total energy              =     -45.00630087 Ry
     Harris-Foulkes estimate   =     -45.03688781 Ry
     estimated scf accuracy    <       0.04640413 Ry

     iteration #  4     ecut=    62.47 Ry     beta=0.33
     Davidson diagonalization with overlap
     ethr =  5.80E-04,  avg # of iterations =  3.0

     negative rho (up, down):  1.561E-03 0.000E+00


     -----------------------------------------------
     Non-local corr. energy    =       0.13638523 Ry
     -----------------------------------------------


     total cpu time spent up to now is       56.8 secs

     total energy              =     -45.00956078 Ry
     Harris-Foulkes estimate   =     -45.04479625 Ry
     estimated scf accuracy    <       0.06899013 Ry

     iteration #  5     ecut=    62.47 Ry     beta=0.33
     Davidson diagonalization with overlap
     ethr =  5.80E-04,  avg # of iterations =  1.0

     negative rho (up, down):  1.488E-03 0.000E+00


     -----------------------------------------------
     Non-local corr. energy    =       0.13634370 Ry
     -----------------------------------------------


     total cpu time spent up to now is       63.5 secs

     total energy              =     -45.01720465 Ry
     Harris-Foulkes estimate   =     -45.01762084 Ry
     estimated scf accuracy    <       0.00436264 Ry

     iteration #  6     ecut=    62.47 Ry     beta=0.33
     Davidson diagonalization with overlap
     ethr =  5.45E-05,  avg # of iterations = 14.0

     negative rho (up, down):  1.486E-03 0.000E+00


     -----------------------------------------------
     Non-local corr. energy    =       0.13628409 Ry
     -----------------------------------------------


     total cpu time spent up to now is       72.3 secs

     total energy              =     -45.02465521 Ry
     Harris-Foulkes estimate   =     -45.02498222 Ry
     estimated scf accuracy    <       0.00150966 Ry

     iteration #  7     ecut=    62.47 Ry     beta=0.33
     Davidson diagonalization with overlap
     ethr =  1.89E-05,  avg # of iterations =  4.0

     negative rho (up, down):  1.550E-03 0.000E+00


     -----------------------------------------------
     Non-local corr. energy    =       0.13620494 Ry
     -----------------------------------------------


     total cpu time spent up to now is       79.2 secs

     total energy              =     -45.02432154 Ry
     Harris-Foulkes estimate   =     -45.02468219 Ry
     estimated scf accuracy    <       0.00079219 Ry

     iteration #  8     ecut=    62.47 Ry     beta=0.33
     Davidson diagonalization with overlap
     ethr =  9.90E-06,  avg # of iterations =  3.0

     negative rho (up, down):  1.548E-03 0.000E+00


     -----------------------------------------------
     Non-local corr. energy    =       0.13620178 Ry
     -----------------------------------------------


     total cpu time spent up to now is       86.1 secs

     total energy              =     -45.02453736 Ry
     Harris-Foulkes estimate   =     -45.02453691 Ry
     estimated scf accuracy    <       0.00000711 Ry

     iteration #  9     ecut=    62.47 Ry     beta=0.33
     Davidson diagonalization with overlap
     ethr =  8.88E-08,  avg # of iterations = 18.0

     negative rho (up, down):  1.559E-03 0.000E+00


     -----------------------------------------------
     Non-local corr. energy    =       0.13620352 Ry
     -----------------------------------------------


     total cpu time spent up to now is       94.8 secs

     total energy              =     -45.02457535 Ry
     Harris-Foulkes estimate   =     -45.02457733 Ry
     estimated scf accuracy    <       0.00003104 Ry

     iteration # 10     ecut=    62.47 Ry     beta=0.33
     Davidson diagonalization with overlap
     ethr =  8.88E-08,  avg # of iterations =  1.0

     negative rho (up, down):  1.587E-03 0.000E+00


     -----------------------------------------------
     Non-local corr. energy    =       0.13621002 Ry
     -----------------------------------------------


     total cpu time spent up to now is      101.5 secs

     total energy              =     -45.02456864 Ry
     Harris-Foulkes estimate   =     -45.02457539 Ry
     estimated scf accuracy    <       0.00002689 Ry

     iteration # 11     ecut=    62.47 Ry     beta=0.33
     Davidson diagonalization with overlap
     ethr =  8.88E-08,  avg # of iterations =  1.0

     negative rho (up, down):  1.587E-03 0.000E+00


     -----------------------------------------------
     Non-local corr. energy    =       0.13621014 Ry
     -----------------------------------------------


     total cpu time spent up to now is      108.3 secs

     total energy              =     -45.02456914 Ry
     Harris-Foulkes estimate   =     -45.02456925 Ry
     estimated scf accuracy    <       0.00001237 Ry

     iteration # 12     ecut=    62.47 Ry     beta=0.33
     Davidson diagonalization with overlap
     ethr =  8.88E-08,  avg # of iterations =  1.0

     negative rho (up, down):  1.587E-03 0.000E+00


     -----------------------------------------------
     Non-local corr. energy    =       0.13621003 Ry
     -----------------------------------------------


     total cpu time spent up to now is      114.9 secs

     total energy              =     -45.02456919 Ry
     Harris-Foulkes estimate   =     -45.02456932 Ry
     estimated scf accuracy    <       0.00001155 Ry

     iteration # 13     ecut=    62.47 Ry     beta=0.33
     Davidson diagonalization with overlap
     ethr =  8.88E-08,  avg # of iterations =  1.0

     negative rho (up, down):  1.587E-03 0.000E+00


     -----------------------------------------------
     Non-local corr. energy    =       0.13621049 Ry
     -----------------------------------------------


     total cpu time spent up to now is      121.6 secs

     total energy              =     -45.02456904 Ry
     Harris-Foulkes estimate   =     -45.02456934 Ry
     estimated scf accuracy    <       0.00000967 Ry

     iteration # 14     ecut=    62.47 Ry     beta=0.33
     Davidson diagonalization with overlap
     ethr =  8.88E-08,  avg # of iterations =  1.0

     negative rho (up, down):  1.587E-03 0.000E+00


     -----------------------------------------------
     Non-local corr. energy    =       0.13621027 Ry
     -----------------------------------------------


     total cpu time spent up to now is      128.3 secs

     total energy              =     -45.02456932 Ry
     Harris-Foulkes estimate   =     -45.02456919 Ry
     estimated scf accuracy    <       0.00000847 Ry

     iteration # 15     ecut=    62.47 Ry     beta=0.33
     Davidson diagonalization with overlap
     ethr =  8.88E-08,  avg # of iterations =  1.0

     negative rho (up, down):  1.586E-03 0.000E+00


     -----------------------------------------------
     Non-local corr. energy    =       0.13621016 Ry
     -----------------------------------------------


     total cpu time spent up to now is      134.9 secs

     total energy              =     -45.02456959 Ry
     Harris-Foulkes estimate   =     -45.02456941 Ry
     estimated scf accuracy    <       0.00000795 Ry

     iteration # 16     ecut=    62.47 Ry     beta=0.33
     Davidson diagonalization with overlap
     ethr =  8.88E-08,  avg # of iterations =  1.0

     negative rho (up, down):  1.585E-03 0.000E+00


     -----------------------------------------------
     Non-local corr. energy    =       0.13621100 Ry
     -----------------------------------------------


     total cpu time spent up to now is      141.5 secs

     total energy              =     -45.02456912 Ry
     Harris-Foulkes estimate   =     -45.02456965 Ry
     estimated scf accuracy    <       0.00000832 Ry

     iteration # 17     ecut=    62.47 Ry     beta=0.33
     Davidson diagonalization with overlap
     ethr =  8.88E-08,  avg # of iterations =  1.0

     negative rho (up, down):  1.588E-03 0.000E+00


     -----------------------------------------------
     Non-local corr. energy    =       0.13621188 Ry
     -----------------------------------------------


     total cpu time spent up to now is      148.2 secs

     total energy              =     -45.02456774 Ry
     Harris-Foulkes estimate   =     -45.02456920 Ry
     estimated scf accuracy    <       0.00000646 Ry

     iteration # 18     ecut=    62.47 Ry     beta=0.33
     Davidson diagonalization with overlap
     ethr =  8.07E-08,  avg # of iterations =  2.0

     negative rho (up, down):  1.579E-03 0.000E+00


     -----------------------------------------------
     Non-local corr. energy    =       0.13621068 Ry
     -----------------------------------------------


     total cpu time spent up to now is      154.9 secs

     total energy              =     -45.02456924 Ry
     Harris-Foulkes estimate   =     -45.02456856 Ry
     estimated scf accuracy    <       0.00000100 Ry

     iteration # 19     ecut=    62.47 Ry     beta=0.33
     Davidson diagonalization with overlap
     ethr =  1.25E-08,  avg # of iterations =  1.0

     negative rho (up, down):  1.579E-03 0.000E+00


     -----------------------------------------------
     Non-local corr. energy    =       0.13621114 Ry
     -----------------------------------------------


     total cpu time spent up to now is      161.6 secs

     total energy              =     -45.02456890 Ry
     Harris-Foulkes estimate   =     -45.02456937 Ry
     estimated scf accuracy    <       0.00000301 Ry

     iteration # 20     ecut=    62.47 Ry     beta=0.33
     Davidson diagonalization with overlap
     ethr =  1.25E-08,  avg # of iterations =  1.0

     negative rho (up, down):  1.578E-03 0.000E+00


     -----------------------------------------------
     Non-local corr. energy    =       0.13621213 Ry
     -----------------------------------------------


     total cpu time spent up to now is      168.3 secs

     total energy              =     -45.02456876 Ry
     Harris-Foulkes estimate   =     -45.02456900 Ry
     estimated scf accuracy    <       0.00000107 Ry

     iteration # 21     ecut=    62.47 Ry     beta=0.33
     Davidson diagonalization with overlap
     ethr =  1.25E-08,  avg # of iterations =  2.0

     negative rho (up, down):  1.577E-03 0.000E+00


     -----------------------------------------------
     Non-local corr. energy    =       0.13621231 Ry
     -----------------------------------------------


     total cpu time spent up to now is      175.0 secs

     total energy              =     -45.02456886 Ry
     Harris-Foulkes estimate   =     -45.02456889 Ry
     estimated scf accuracy    <       0.00000021 Ry

     iteration # 22     ecut=    62.47 Ry     beta=0.33
     Davidson diagonalization with overlap
     ethr =  2.64E-09,  avg # of iterations =  3.0

     negative rho (up, down):  1.577E-03 0.000E+00


     -----------------------------------------------
     Non-local corr. energy    =       0.13621225 Ry
     -----------------------------------------------


     total cpu time spent up to now is      181.8 secs

     total energy              =     -45.02456895 Ry
     Harris-Foulkes estimate   =     -45.02456896 Ry
     estimated scf accuracy    <       0.00000003 Ry

     iteration # 23     ecut=    62.47 Ry     beta=0.33
     Davidson diagonalization with overlap
     ethr =  4.09E-10,  avg # of iterations =  1.0

     negative rho (up, down):  1.576E-03 0.000E+00


     -----------------------------------------------
     Non-local corr. energy    =       0.13621245 Ry
     -----------------------------------------------


     total cpu time spent up to now is      188.5 secs

     total energy              =     -45.02456900 Ry
     Harris-Foulkes estimate   =     -45.02456895 Ry
     estimated scf accuracy    <       0.00000003 Ry

     iteration # 24     ecut=    62.47 Ry     beta=0.33
     Davidson diagonalization with overlap
     ethr =  4.09E-10,  avg # of iterations =  1.0

     negative rho (up, down):  1.575E-03 0.000E+00


     -----------------------------------------------
     Non-local corr. energy    =       0.13621239 Ry
     -----------------------------------------------


     total cpu time spent up to now is      195.1 secs

     total energy              =     -45.02456894 Ry
     Harris-Foulkes estimate   =     -45.02456900 Ry
     estimated scf accuracy    <       0.00000005 Ry

     iteration # 25     ecut=    62.47 Ry     beta=0.33
     Davidson diagonalization with overlap
     ethr =  4.09E-10,  avg # of iterations =  1.0

     negative rho (up, down):  1.574E-03 0.000E+00


     -----------------------------------------------
     Non-local corr. energy    =       0.13621325 Ry
     -----------------------------------------------


     total cpu time spent up to now is      201.9 secs

     total energy              =     -45.02456892 Ry
     Harris-Foulkes estimate   =     -45.02456894 Ry
     estimated scf accuracy    <       0.00000002 Ry

     iteration # 26     ecut=    62.47 Ry     beta=0.33
     Davidson diagonalization with overlap
     ethr =  2.68E-10,  avg # of iterations =  1.0

     negative rho (up, down):  1.574E-03 0.000E+00


     -----------------------------------------------
     Non-local corr. energy    =       0.13621318 Ry
     -----------------------------------------------


     total cpu time spent up to now is      208.5 secs

     total energy              =     -45.02456896 Ry
     Harris-Foulkes estimate   =     -45.02456892 Ry
     estimated scf accuracy    <          5.4E-09 Ry

     iteration # 27     ecut=    62.47 Ry     beta=0.33
     Davidson diagonalization with overlap
     ethr =  6.72E-11,  avg # of iterations =  3.0

     negative rho (up, down):  1.575E-03 0.000E+00


     -----------------------------------------------
     Non-local corr. energy    =       0.13621294 Ry
     -----------------------------------------------


     total cpu time spent up to now is      215.4 secs

     total energy              =     -45.02456895 Ry
     Harris-Foulkes estimate   =     -45.02456896 Ry
     estimated scf accuracy    <          8.6E-10 Ry

     iteration # 28     ecut=    62.47 Ry     beta=0.33
     Davidson diagonalization with overlap
     ethr =  1.08E-11,  avg # of iterations =  4.0

     negative rho (up, down):  1.574E-03 0.000E+00


     -----------------------------------------------
     Non-local corr. energy    =       0.13621294 Ry
     -----------------------------------------------


     total cpu time spent up to now is      222.4 secs

     total energy              =     -45.02456897 Ry
     Harris-Foulkes estimate   =     -45.02456895 Ry
     estimated scf accuracy    <          3.0E-09 Ry

     iteration # 29     ecut=    62.47 Ry     beta=0.33
     Davidson diagonalization with overlap
     ethr =  1.08E-11,  avg # of iterations =  1.0

     negative rho (up, down):  1.574E-03 0.000E+00


     -----------------------------------------------
     Non-local corr. energy    =       0.13621293 Ry
     -----------------------------------------------


     total cpu time spent up to now is      229.0 secs

     total energy              =     -45.02456898 Ry
     Harris-Foulkes estimate   =     -45.02456897 Ry
     estimated scf accuracy    <          9.6E-10 Ry

     iteration # 30     ecut=    62.47 Ry     beta=0.33
     Davidson diagonalization with overlap
     ethr =  1.08E-11,  avg # of iterations =  3.0

     negative rho (up, down):  1.574E-03 0.000E+00


     -----------------------------------------------
     Non-local corr. energy    =       0.13621289 Ry
     -----------------------------------------------


     total cpu time spent up to now is      236.0 secs

     total energy              =     -45.02456898 Ry
     Harris-Foulkes estimate   =     -45.02456898 Ry
     estimated scf accuracy    <          5.0E-10 Ry

     iteration # 31     ecut=    62.47 Ry     beta=0.33
     Davidson diagonalization with overlap
     ethr =  6.24E-12,  avg # of iterations =  1.0

     negative rho (up, down):  1.574E-03 0.000E+00


     -----------------------------------------------
     Non-local corr. energy    =       0.13621288 Ry
     -----------------------------------------------


     total cpu time spent up to now is      242.7 secs

     total energy              =     -45.02456898 Ry
     Harris-Foulkes estimate   =     -45.02456898 Ry
     estimated scf accuracy    <          8.8E-11 Ry

     iteration # 32     ecut=    62.47 Ry     beta=0.33
     Davidson diagonalization with overlap
     ethr =  1.10E-12,  avg # of iterations =  1.0

     negative rho (up, down):  1.574E-03 0.000E+00


     -----------------------------------------------
     Non-local corr. energy    =       0.13621289 Ry
     -----------------------------------------------


     total cpu time spent up to now is      249.4 secs

     total energy              =     -45.02456898 Ry
     Harris-Foulkes estimate   =     -45.02456898 Ry
     estimated scf accuracy    <          1.8E-10 Ry

     iteration # 33     ecut=    62.47 Ry     beta=0.33
     Davidson diagonalization with overlap
     ethr =  1.10E-12,  avg # of iterations =  1.0

     negative rho (up, down):  1.575E-03 0.000E+00


     -----------------------------------------------
     Non-local corr. energy    =       0.13621289 Ry
     -----------------------------------------------


     total cpu time spent up to now is      256.1 secs

     total energy              =     -45.02456898 Ry
     Harris-Foulkes estimate   =     -45.02456898 Ry
     estimated scf accuracy    <          2.0E-10 Ry

     iteration # 34     ecut=    62.47 Ry     beta=0.33
     Davidson diagonalization with overlap
     ethr =  1.10E-12,  avg # of iterations =  3.0

     negative rho (up, down):  1.574E-03 0.000E+00


     -----------------------------------------------
     Non-local corr. energy    =       0.13621291 Ry
     -----------------------------------------------


     total cpu time spent up to now is      263.1 secs

     total energy              =     -45.02456898 Ry
     Harris-Foulkes estimate   =     -45.02456898 Ry
     estimated scf accuracy    <          2.2E-10 Ry

     iteration # 35     ecut=    62.47 Ry     beta=0.33
     Davidson diagonalization with overlap
     ethr =  1.10E-12,  avg # of iterations =  1.0

     negative rho (up, down):  1.574E-03 0.000E+00


     -----------------------------------------------
     Non-local corr. energy    =       0.13621290 Ry
     -----------------------------------------------


     total cpu time spent up to now is      269.7 secs

     total energy              =     -45.02456898 Ry
     Harris-Foulkes estimate   =     -45.02456898 Ry
     estimated scf accuracy    <          5.7E-11 Ry

     iteration # 36     ecut=    62.47 Ry     beta=0.33
     Davidson diagonalization with overlap
     ethr =  7.17E-13,  avg # of iterations =  3.0

     negative rho (up, down):  1.574E-03 0.000E+00


     -----------------------------------------------
     Non-local corr. energy    =       0.13621290 Ry
     -----------------------------------------------


     total cpu time spent up to now is      276.6 secs

     total energy              =     -45.02456898 Ry
     Harris-Foulkes estimate   =     -45.02456898 Ry
     estimated scf accuracy    <          1.1E-10 Ry

     iteration # 37     ecut=    62.47 Ry     beta=0.33
     Davidson diagonalization with overlap
     ethr =  7.17E-13,  avg # of iterations =  1.0

     negative rho (up, down):  1.574E-03 0.000E+00


     -----------------------------------------------
     Non-local corr. energy    =       0.13621290 Ry
     -----------------------------------------------


     total cpu time spent up to now is      283.3 secs

     total energy              =     -45.02456898 Ry
     Harris-Foulkes estimate   =     -45.02456898 Ry
     estimated scf accuracy    <          2.6E-11 Ry

     iteration # 38     ecut=    62.47 Ry     beta=0.33
     Davidson diagonalization with overlap
     ethr =  3.25E-13,  avg # of iterations =  2.0

     negative rho (up, down):  1.574E-03 0.000E+00


     -----------------------------------------------
     Non-local corr. energy    =       0.13621291 Ry
     -----------------------------------------------


     total cpu time spent up to now is      289.9 secs

     End of self-consistent calculation

          k = 0.0000 0.0000 0.0000 (450127 PWs)   bands (ev):

   -25.6743 -13.5677  -9.7165  -7.6666  -1.4590  -0.1532   0.0000   0.1333
     0.1430   0.1857   0.2113   0.3029   0.3168   0.4479   0.4678   0.5454
     0.5465   0.5494   0.5597   0.5767   0.5871   0.5880   0.5883   0.7584
     0.7790   0.8643   0.8804   0.9202   0.9282   0.9421   0.9552   1.0787
     1.1147   1.2061   1.2257   1.2633   1.2926   1.3858   1.4180   1.4771

     occupation numbers 
     1.0000   1.0000   1.0000   1.0000   0.0000   0.0000   0.0000   0.0000
     0.0000   0.0000   0.0000   0.0000   0.0000   0.0000   0.0000   0.0000
     0.0000   0.0000   0.0000   0.0000   0.0000   0.0000   0.0000   0.0000
     0.0000   0.0000   0.0000   0.0000   0.0000   0.0000   0.0000   0.0000
     0.0000   0.0000   0.0000   0.0000   0.0000   0.0000   0.0000   0.0000

     highest occupied, lowest unoccupied level (ev):    -7.6666   -1.4590

!    total energy              =     -45.02456898 Ry
     Harris-Foulkes estimate   =     -45.02456898 Ry
     estimated scf accuracy    <          4.4E-12 Ry

     total all-electron energy =      -153.871451 Ry

     The total energy is the sum of the following terms:

     one-electron contribution =     -68.95537546 Ry
     hartree contribution      =      36.16114650 Ry
     xc contribution           =      -9.23615753 Ry
     ewald contribution        =       7.23163431 Ry
     one-center paw contrib.   =     -10.22581680 Ry
      -> PAW hartree energy AE =      27.97576144 Ry
      -> PAW hartree energy PS =     -27.94103478 Ry
      -> PAW xc energy AE      =     -17.91592307 Ry
      -> PAW xc energy PS      =       7.65662792 Ry
      -> total E_H with PAW    =      36.19587315 Ry
      -> total E_XC with PAW   =     -19.49545268 Ry

     convergence has been achieved in  38 iterations

     negative rho (up, down):  1.574E-03 0.000E+00


     -----------------------------------------------
     Non-local corr. energy    =       0.13621291 Ry
     -----------------------------------------------


     Forces acting on atoms (cartesian axes, Ry/au):

     atom    1 type  1   force =     0.00000000    0.01206588   -0.00712821
     atom    2 type  2   force =     0.00000000    0.00117989   -0.00112806
     atom    3 type  2   force =     0.00000000   -0.01324577    0.00826123
     The non-local contrib.  to forces
     atom    1 type  1   force =     0.00000000    0.00262736    2.52431667
     atom    2 type  2   force =     0.00000000   -0.09239342   -0.06545651
     atom    3 type  2   force =     0.00000000    0.09460379   -0.06805963
     The ionic contribution  to forces
     atom    1 type  1   force =     0.00000000    0.03263253   -4.41112309
     atom    2 type  2   force =     0.00000000    3.06724893    2.17851859
     atom    3 type  2   force =     0.00000000   -3.09988146    2.23260449
     The local contribution  to forces
     atom    1 type  1   force =    -0.00001464   -0.02311936    1.90390366
     atom    2 type  2   force =    -0.00000128   -2.97367606   -2.11419061
     atom    3 type  2   force =    -0.00000130    2.99203236   -2.15628409
     The core correction contribution to forces
     atom    1 type  1   force =     0.00000014   -0.00007445   -0.02422692
     atom    2 type  2   force =     0.00000000    0.00000000    0.00000000
     atom    3 type  2   force =     0.00000000    0.00000000    0.00000000
     The Hubbard contrib.    to forces
     atom    1 type  1   force =     0.00000000    0.00000000    0.00000000
     atom    2 type  2   force =     0.00000000    0.00000000    0.00000000
     atom    3 type  2   force =     0.00000000    0.00000000    0.00000000
     The SCF correction term to forces
     atom    1 type  1   force =     0.00000000   -0.00000019    0.00000146
     atom    2 type  2   force =     0.00000000    0.00000044    0.00000047
     atom    3 type  2   force =     0.00000000   -0.00000047    0.00000046

     Total force =     0.021042     Total SCF correction =     0.000002

     Writing output data file H2O_IR.save
 
     init_run     :     44.65s CPU     23.88s WALL (       1 calls)
     electrons    :    516.48s CPU    265.06s WALL (       1 calls)
     forces       :     14.72s CPU      7.60s WALL (       1 calls)

     Called by init_run:
     wfcinit      :      0.61s CPU      0.39s WALL (       1 calls)
     wfcinit:atom :      0.00s CPU      0.00s WALL (       1 calls)
     wfcinit:wfcr :      0.58s CPU      0.36s WALL (       1 calls)
     potinit      :     14.08s CPU      7.05s WALL (       1 calls)

     Called by electrons:
     c_bands      :     74.01s CPU     38.68s WALL (      38 calls)
     sum_band     :     33.95s CPU     17.54s WALL (      38 calls)
     v_of_rho     :    395.80s CPU    201.32s WALL (      39 calls)
     v_h          :      5.52s CPU      2.57s WALL (      39 calls)
     v_xc         :    400.36s CPU    203.79s WALL (      40 calls)
     newd         :      8.89s CPU      5.77s WALL (      39 calls)
     PAW_pot      :      1.41s CPU      1.41s WALL (      39 calls)
     mix_rho      :      6.88s CPU      3.81s WALL (      38 calls)

     Called by c_bands:
     init_us_2    :      0.07s CPU      0.07s WALL (      77 calls)
     cegterg      :     73.91s CPU     38.57s WALL (      38 calls)

     Called by sum_band:
     sum_band:bec :      0.00s CPU      0.00s WALL (      38 calls)
     addusdens    :      9.40s CPU      3.13s WALL (      38 calls)

     Called by *egterg:
     h_psi        :     53.31s CPU     26.47s WALL (     146 calls)
     s_psi        :      0.03s CPU      0.04s WALL (     146 calls)
     g_psi        :      0.02s CPU      0.02s WALL (     107 calls)
     cdiaghg      :      4.68s CPU      4.75s WALL (     145 calls)
     cegterg:over :      2.50s CPU      1.48s WALL (     107 calls)
     cegterg:upda :      0.54s CPU      0.54s WALL (     107 calls)
     cegterg:last :      0.22s CPU      0.22s WALL (      42 calls)
     cdiaghg:chol :      0.14s CPU      0.14s WALL (     145 calls)
     cdiaghg:inve :      0.09s CPU      0.09s WALL (     145 calls)
     cdiaghg:para :      0.10s CPU      0.10s WALL (     290 calls)

     Called by h_psi:
     h_psi:pot    :     53.27s CPU     26.42s WALL (     146 calls)
     h_psi:calbec :      0.29s CPU      0.11s WALL (     146 calls)
     vloc_psi     :     52.94s CPU     26.28s WALL (     146 calls)
     add_vuspsi   :      0.03s CPU      0.03s WALL (     146 calls)

     General routines
     calbec       :      0.33s CPU      0.15s WALL (     188 calls)
     fft          :    220.58s CPU    106.62s WALL (    2631 calls)
     ffts         :      0.54s CPU      0.54s WALL (      77 calls)
     fftw         :     59.01s CPU     28.42s WALL (    8776 calls)
     interpolate  :      5.68s CPU      3.65s WALL (      77 calls)
 
     Parallel routines
     fft_scatter  :    177.26s CPU     86.08s WALL (   11484 calls)

     PAW routines
     PAW_pot      :      1.41s CPU      1.41s WALL (      39 calls)
     PAW_symme    :      0.01s CPU      0.01s WALL (      77 calls)
 
     PWSCF        :  9m42.30s CPU     5m 1.47s WALL

 
   This run was terminated on:  15: 0:50   9Feb2026            

=------------------------------------------------------------------------------=
   JOB DONE.
=------------------------------------------------------------------------------=
