
     Program PWSCF v.6.1 starts on 10Feb2026 at 14:45:42 

     This program is part of the open-source Quantum ESPRESSO suite
     for quantum simulation of materials; please cite
         "P. Giannozzi et al., J. Phys.:Condens. Matter 21 395502 (2009);
          URL http://www.quantum-espresso.org", 
     in publications or presentations arising from this work. More details at
     http://www.quantum-espresso.org/quote

     Parallel version (MPI & OpenMP), running on     480 processor cores
     Number of MPI processes:               240
     Threads/MPI process:                     2
     R & G space division:  proc/nbgrp/npool/nimage =     240
     Reading input from espresso.pwi

     Current dimensions of program PWSCF are:
     Max number of different atomic species (ntypx) = 10
     Max number of k-points (npk) =  40000
     Max angular momentum in pseudopotentials (lmaxx) =  3

     IMPORTANT: XC functional enforced from input :
     Exchange-correlation      = VDW-DF2 ( 1  4 13  0 2 0)
     Any further DFT definition will be discarded
     Please, verify this is what you really want

               file Cu.pbe-dn-kjpaw_psl.1.0.0.UPF: wavefunction(s)  4S 3D renormalized
               file C.pbe-n-kjpaw_psl.1.0.0.UPF: wavefunction(s)  2S 2P renormalized
               file O.pbe-n-kjpaw_psl.1.0.0.UPF: wavefunction(s)  2S 2P renormalized
     Message from routine iosys_1drism:
     default density from MOL file(H2O.tip5p.MOL) is used

     Subspace diagonalization in iterative solution of the eigenvalue problem:
     one sub-group per band group will be used
     ELPA distributed-memory algorithm (size of sub-group: 10* 10 procs)


     Molecule # 1 for H2O read from file:
     /work/gf93/f93007/QE/pseudo/H2O.tip5p.MOL
     Density:
         0.72794769E+02 cell^-1
         0.49533750E-02 bohr^-3
         0.55506881E+02 mol/L
         0.99997200E+00 g/cm^3
     Permittivity:
        78.355300
     Number of atoms:   5
     Atoms:
       #  atom      X (angs)      Y (angs)      Z (angs)      Q (e)         E (kcal/mol)  S (angs)
       1  O/h2o     0.00000000    0.00000000    0.00000000    0.00000000    0.16000000    3.12000000
       2  H/h2o     0.75695000    0.58588000    0.00000000    0.24100000    0.04600000    1.00000000
       3  H/h2o    -0.75695000    0.58588000    0.00000000    0.24100000    0.04600000    1.00000000
       4  L/h2o     0.00000000   -0.40415000    0.57154000   -0.24100000    0.04600000    1.80000000
       5  L/h2o     0.00000000   -0.40415000   -0.57154000   -0.24100000    0.04600000    1.80000000


     Molecule # 2 for K+ read from file:
     /work/gf93/f93007/QE/pseudo/K+.oplsaa.MOL
     Density:
         0.13114549E+01 cell^-1
         0.89238936E-04 bohr^-3
         0.10000000E+01 mol/L
         0.39098300E-01 g/cm^3
     Number of atoms:   1
     Atoms:
       #  atom      X (angs)      Y (angs)      Z (angs)      Q (e)         E (kcal/mol)  S (angs)
       1  K         0.00000000    0.00000000    0.00000000    1.00000000    0.00032800    4.93462800


     Molecule # 3 for OH- read from file:
     /work/gf93/f93007/QE/pseudo/OH-.oplsaa.MOL
     Density:
         0.13114549E+01 cell^-1
         0.89238936E-04 bohr^-3
         0.10000000E+01 mol/L
         0.17007340E-01 g/cm^3
     Number of atoms:   2
     Atoms:
       #  atom      X (angs)      Y (angs)      Z (angs)      Q (e)         E (kcal/mol)  S (angs)
       1  O/oh      0.00000000    0.00000000    0.00000000   -1.30000000    0.25000000    3.20000000
       2  H/oh      0.95300000    0.00000000    0.00000000    0.30000000    0.04600000    1.00000000


     Number of total sites:   8
     Index site -> solvent: 
       1  1  1  1  1  2  3  3
     Index site -> atom (in a solvent): 
       1  2  3  4  5  1  1  2


     Number of unique sites:   6
     Multiplicity of unique site: 
       1  2  2  1  1  1
     Index unique site -> site: 
       1:  1
       2:  2  3
       3:  4  5
       4:  6
       5:  7
       6:  8


     1D-RISM info
     ------------
     closure equation        =           KH
     temperature             =     300.0000  kelvin
     coulomb smearing radius =       2.0000  bohr
     number of solvent sites =            8
     nv * (nv + 1) / 2       =           36
     number of grids         =         8345
     maximum of R-space      =     999.8802  bohr
     maximum of G-space      =      26.2150  bohr^-1
     #R-grids in local       =           66
     #G-grids in local       =           66
     number of iterations    =       100000
     convergence threshold   =      1.0E-08
     Gaussian width of bonds =       0.2530  bohr
     size of MDIIS           =           20
     step of MDIIS           =       0.1000
     number of processes     =          128


     Radial FFT:
     number of radial grids   =         8345
     number of FFT grids      =        16689
     good number of FFT grids =           -1
     R-space grids:
       0.00000000E+00  0.11983223E+00  0.23966447E+00  0.35949670E+00  0.47932894E+00
       0.59916117E+00  0.71899341E+00  0.83882564E+00  0.95865788E+00  0.10784901E+01
       ..............  ..............  ..............  ..............  ..............
       0.99880168E+03  0.99892151E+03  0.99904134E+03  0.99916117E+03  0.99928101E+03
       0.99940084E+03  0.99952067E+03  0.99964050E+03  0.99976034E+03  0.99988017E+03
     G-space grids:
       0.00000000E+00  0.31417809E-02  0.62835618E-02  0.94253427E-02  0.12567124E-01
       0.15708904E-01  0.18850685E-01  0.21992466E-01  0.25134247E-01  0.28276028E-01
       ..............  ..............  ..............  ..............  ..............
       0.26186744E+02  0.26189886E+02  0.26193027E+02  0.26196169E+02  0.26199311E+02
       0.26202453E+02  0.26205594E+02  0.26208736E+02  0.26211878E+02  0.26215020E+02


     MPI for site:
     number of site groups     =          128
     #procs in a site group    =            1
     this proc in a site group =            0
     the root in a site group  =            0
     this site group           =            0
     inter-site group comm.    =           20
     intra-site group comm.    =            2
     total number of sites     =           36
     starting index of sites   =            1
     ending index of sites     =            1


     MPI for task:
     #procs in a task group    =          128
     this proc in a task group =            0
     the root in a task group  =            0
     task group comm.          =           20
     total number of vectors   =         8345
     starting index of vectors =            1
     ending index of vectors   =           66
     lengths of vectors        = 
        66   66   66   66   66   66   66   66   66   66
        66   66   66   66   66   66   66   66   66   66
        66   66   66   66   66   65   65   65   65   65
        65   65   65   65   65   65   65   65   65   65
        65   65   65   65   65   65   65   65   65   65
        65   65   65   65   65   65   65   65   65   65
        65   65   65   65   65   65   65   65   65   65
        65   65   65   65   65   65   65   65   65   65
        65   65   65   65   65   65   65   65   65   65
        65   65   65   65   65   65   65   65   65   65
        65   65   65   65   65   65   65   65   65   65
        65   65   65   65   65   65   65   65   65   65
        65   65   65   65   65   65   65   65
     displacement of vectors   = 
         0   66  132  198  264  330  396  462  528  594
       660  726  792  858  924  990 1056 1122 1188 1254
      1320 1386 1452 1518 1584 1650 1715 1780 1845 1910
      1975 2040 2105 2170 2235 2300 2365 2430 2495 2560
      2625 2690 2755 2820 2885 2950 3015 3080 3145 3210
      3275 3340 3405 3470 3535 3600 3665 3730 3795 3860
      3925 3990 4055 4120 4185 4250 4315 4380 4445 4510
      4575 4640 4705 4770 4835 4900 4965 5030 5095 5160
      5225 5290 5355 5420 5485 5550 5615 5680 5745 5810
      5875 5940 6005 6070 6135 6200 6265 6330 6395 6460
      6525 6590 6655 6720 6785 6850 6915 6980 7045 7110
      7175 7240 7305 7370 7435 7500 7565 7630 7695 7760
      7825 7890 7955 8020 8085 8150 8215 8280


     Correlation function is read from file


     1D-RISM Calculation

     iter. #     1  RMS(g-h-1)= 9.995E-09  nbox=  0  T=  300.00K

     End of 1D-RISM calculation


     convergence has been achieved in     1 iterations


     Chemical potential of solvation

     H2O        H2O        Closure      0.106068E+01 kcal/mol
                           GaussFluct  -0.737993E+01 kcal/mol

                K+         Closure     -0.288345E+00 kcal/mol
                           GaussFluct  -0.358438E+00 kcal/mol

                OH-        Closure     -0.764259E+00 kcal/mol
                           GaussFluct  -0.855991E+00 kcal/mol

                Total      Closure      0.808077E-02 kcal/mol
                           GaussFluct  -0.859435E+01 kcal/mol

     K+         H2O        Closure     -0.160051E+02 kcal/mol
                           GaussFluct  -0.198958E+02 kcal/mol

                K+         Closure      0.351561E+06 kcal/mol
                           GaussFluct   0.351561E+06 kcal/mol

                OH-        Closure     -0.351612E+06 kcal/mol
                           GaussFluct  -0.351612E+06 kcal/mol

                Total      Closure     -0.668098E+02 kcal/mol
                           GaussFluct  -0.707592E+02 kcal/mol

     OH-        H2O        Closure     -0.424217E+02 kcal/mol
                           GaussFluct  -0.475134E+02 kcal/mol

                K+         Closure     -0.351612E+06 kcal/mol
                           GaussFluct  -0.351612E+06 kcal/mol

                OH-        Closure      0.351561E+06 kcal/mol
                           GaussFluct   0.351561E+06 kcal/mol

                Total      Closure     -0.934347E+02 kcal/mol
                           GaussFluct  -0.986502E+02 kcal/mol

 
     Parallelization info
     --------------------
     sticks:   dense  smooth     PW     G-vecs:    dense   smooth      PW
     Min          40      16      4                16136     4064     568
     Max          41      17      5                16171     4100     615
     Sum        9661    3865   1057              3875677   980529  140539
 

     Title: 
     Cu-vib                                                                     


     bravais-lattice index     =            0
     lattice parameter (alat)  =      14.9832  a.u.
     unit-cell volume          =   14695.9939 (a.u.)^3
     number of atoms/cell      =           38
     number of atomic types    =            3
     number of electrons       =       406.00
     number of Kohn-Sham states=          244
     kinetic-energy cutoff     =      62.4738  Ry
     charge density cutoff     =     624.7385  Ry
     convergence threshold     =      7.3E-12
     mixing beta               =       0.3333
     number of iterations used =           12  plain     mixing
     Exchange-correlation      = VDW-DF2 ( 1  4 13  0 2 0)

     Effective Screening Medium Method
     =================================
     Boundary Conditions: Vacuum-Slab-Vacuum
     total charge in unit cell        =   0.0000
     grid points for fit at edges     =        4 
 

     celldm(1)=  14.983209  celldm(2)=   0.000000  celldm(3)=   0.000000
     celldm(4)=   0.000000  celldm(5)=   0.000000  celldm(6)=   0.000000

     crystal axes: (cart. coord. in units of alat)
               a(1) = (   1.000000   0.000000   0.000000 )  
               a(2) = (   0.500000   0.866025   0.000000 )  
               a(3) = (   0.000000   0.000000   5.044917 )  

     reciprocal axes: (cart. coord. in units 2 pi/alat)
               b(1) = (  1.000000 -0.577351  0.000000 )  
               b(2) = (  0.000000  1.154701  0.000000 )  
               b(3) = (  0.000000  0.000000  0.198219 )  


     PseudoPot. # 1 for Cu read from file:
     /work/gf93/f93007/QE/pseudo/Cu.pbe-dn-kjpaw_psl.1.0.0.UPF
     MD5 check sum: 67c40f9e1593dc2d139023e70404cc2a
     Pseudo is Projector augmented-wave + core cor, Zval = 11.0
     Generated using "atomic" code by A. Dal Corso  v.6.1 svn rev. 13369
     Shape of augmentation charge: PSQ
     Using radial grid of 1199 points,  6 beta functions with: 
                l(1) =   0
                l(2) =   0
                l(3) =   1
                l(4) =   1
                l(5) =   2
                l(6) =   2
     Q(r) pseudized with 0 coefficients 


     PseudoPot. # 2 for  C read from file:
     /work/gf93/f93007/QE/pseudo/C.pbe-n-kjpaw_psl.1.0.0.UPF
     MD5 check sum: 92a742b3ac0ce1af44b5aa3f9352ca21
     Pseudo is Projector augmented-wave + core cor, Zval =  4.0
     Generated using "atomic" code by A. Dal Corso  v.6.1 svn rev. 13369
     Shape of augmentation charge: PSQ
     Using radial grid of 1073 points,  4 beta functions with: 
                l(1) =   0
                l(2) =   0
                l(3) =   1
                l(4) =   1
     Q(r) pseudized with 0 coefficients 


     PseudoPot. # 3 for  O read from file:
     /work/gf93/f93007/QE/pseudo/O.pbe-n-kjpaw_psl.1.0.0.UPF
     MD5 check sum: c61d840054b6bba219e553541e327118
     Pseudo is Projector augmented-wave + core cor, Zval =  6.0
     Generated using "atomic" code by A. Dal Corso  v.6.1 svn rev. 13369
     Shape of augmentation charge: PSQ
     Using radial grid of 1095 points,  4 beta functions with: 
                l(1) =   0
                l(2) =   0
                l(3) =   1
                l(4) =   1
     Q(r) pseudized with 0 coefficients 


     vdW kernel table read from file vdW_kernel_table
     MD5 check sum: 6d69797d2e858e93e031fb7d16d30e50

     atomic species   valence    mass     pseudopotential
        Cu            11.00    63.54600     Cu( 1.00)
        C              4.00    12.01100      C( 1.00)
        O              6.00    15.99900      O( 1.00)

     No symmetry found


                                    s                        frac. trans.

      isym =  1     identity                                     

 cryst.   s( 1) = (     1          0          0      )
                  (     0          1          0      )
                  (     0          0          1      )

 cart.    s( 1) = (  1.0000000  0.0000000  0.0000000 )
                  (  0.0000000  1.0000000  0.0000000 )
                  (  0.0000000  0.0000000  1.0000000 )


   Cartesian axes

     site n.     atom                  positions (alat units)
         1           Cu  tau(   1) = (   0.0000000   0.0000000  -0.8248888  )
         2           Cu  tau(   2) = (   0.3333333   0.0000000  -0.8248888  )
         3           Cu  tau(   3) = (   0.6666667   0.0000000  -0.8248888  )
         4           Cu  tau(   4) = (   0.1666667   0.2886751  -0.8248888  )
         5           Cu  tau(   5) = (   0.5000000   0.2886751  -0.8248888  )
         6           Cu  tau(   6) = (   0.8333333   0.2886751  -0.8248888  )
         7           Cu  tau(   7) = (   0.3333333   0.5773503  -0.8248888  )
         8           Cu  tau(   8) = (   0.6666667   0.5773503  -0.8248888  )
         9           Cu  tau(   9) = (   1.0000000   0.5773503  -0.8248888  )
        10           Cu  tau(  10) = (   0.1679527   0.0969677  -0.5550278  )
        11           Cu  tau(  11) = (   0.5000001   0.0963555  -0.5546924  )
        12           Cu  tau(  12) = (   0.8320475   0.0969677  -0.5550278  )
        13           Cu  tau(  13) = (   0.3334463   0.3848350  -0.5546924  )
        14           Cu  tau(  14) = (   0.6665540   0.3848351  -0.5546924  )
        15           Cu  tau(  15) = (   1.0000000   0.3851225  -0.5554971  )
        16           Cu  tau(  16) = (   0.5000002   0.6720902  -0.5550277  )
        17           Cu  tau(  17) = (   0.8335259   0.6734639  -0.5554970  )
        18           Cu  tau(  18) = (   1.1664742   0.6734639  -0.5554970  )
        19           Cu  tau(  19) = (   0.0000002   0.1919045  -0.2895402  )
        20           Cu  tau(  20) = (   0.3359748   0.1939752  -0.2811846  )
        21           Cu  tau(  21) = (   0.6640256   0.1939752  -0.2811846  )
        22           Cu  tau(  22) = (   0.1667941   0.4810516  -0.2872685  )
        23           Cu  tau(  23) = (   0.5000002   0.4780753  -0.2811846  )
        24           Cu  tau(  24) = (   0.8332061   0.4810517  -0.2872684  )
        25           Cu  tau(  25) = (   0.3338062   0.7700731  -0.2895404  )
        26           Cu  tau(  26) = (   0.6661942   0.7700731  -0.2895403  )
        27           Cu  tau(  27) = (   1.0000001   0.7699472  -0.2872685  )
        28           Cu  tau(  28) = (   0.0000000   0.0000002  -0.0207473  )
        29           Cu  tau(  29) = (   0.3317716  -0.0034666  -0.0198287  )
        30           Cu  tau(  30) = (   0.6682285  -0.0034665  -0.0198288  )
        31           Cu  tau(  31) = (   0.1628835   0.2890560  -0.0198289  )
        32           Cu  tau(  32) = (   0.5000001   0.2886752   0.0000000  )
        33           Cu  tau(  33) = (   0.8371164   0.2890560  -0.0198289  )
        34           Cu  tau(  34) = (   0.3311120   0.5804359  -0.0198289  )
        35           Cu  tau(  35) = (   0.6688881   0.5804359  -0.0198288  )
        36           Cu  tau(  36) = (   1.0000000   0.5773501  -0.0191733  )
        37           C   tau(  37) = (   0.4999994   0.2886747   0.2397149  )
        38           O   tau(  38) = (   0.4999989   0.2886744   0.3848034  )

   Crystallographic axes

     site n.     atom                  positions (cryst. coord.)
         1           Cu  tau(   1) = (  0.0000000  0.0000000 -0.1635089  )
         2           Cu  tau(   2) = (  0.3333333  0.0000000 -0.1635089  )
         3           Cu  tau(   3) = (  0.6666667  0.0000000 -0.1635089  )
         4           Cu  tau(   4) = ( -0.0000001  0.3333335 -0.1635089  )
         5           Cu  tau(   5) = (  0.3333333  0.3333335 -0.1635089  )
         6           Cu  tau(   6) = (  0.6666666  0.3333335 -0.1635089  )
         7           Cu  tau(   7) = ( -0.0000002  0.6666670 -0.1635089  )
         8           Cu  tau(   8) = (  0.3333332  0.6666670 -0.1635089  )
         9           Cu  tau(   9) = (  0.6666665  0.6666670 -0.1635089  )
        10           Cu  tau(  10) = (  0.1119684  0.1119687 -0.1100172  )
        11           Cu  tau(  11) = (  0.4443691  0.1112618 -0.1099508  )
        12           Cu  tau(  12) = (  0.7760631  0.1119687 -0.1100172  )
        13           Cu  tau(  13) = (  0.1112615  0.4443694 -0.1099508  )
        14           Cu  tau(  14) = (  0.4443692  0.4443695 -0.1099507  )
        15           Cu  tau(  15) = (  0.7776494  0.4447013 -0.1101102  )
        16           Cu  tau(  16) = (  0.1119685  0.7760633 -0.1100172  )
        17           Cu  tau(  17) = (  0.4447012  0.7776495 -0.1101102  )
        18           Cu  tau(  18) = (  0.7776494  0.7776495 -0.1101102  )
        19           Cu  tau(  19) = ( -0.1107960  0.2215923 -0.0573925  )
        20           Cu  tau(  20) = (  0.2239831  0.2239834 -0.0557362  )
        21           Cu  tau(  21) = (  0.5520338  0.2239834 -0.0557362  )
        22           Cu  tau(  22) = ( -0.1109413  0.5554709 -0.0569422  )
        23           Cu  tau(  23) = (  0.2239831  0.5520341 -0.0557362  )
        24           Cu  tau(  24) = (  0.5554707  0.5554709 -0.0569421  )
        25           Cu  tau(  25) = ( -0.1107959  0.8892042 -0.0573925  )
        26           Cu  tau(  26) = (  0.2215921  0.8892042 -0.0573925  )
        27           Cu  tau(  27) = (  0.5554707  0.8890589 -0.0569422  )
        28           Cu  tau(  28) = ( -0.0000001  0.0000002 -0.0041125  )
        29           Cu  tau(  29) = (  0.3337730 -0.0040029 -0.0039304  )
        30           Cu  tau(  30) = (  0.6702299 -0.0040028 -0.0039305  )
        31           Cu  tau(  31) = ( -0.0040031  0.3337733 -0.0039305  )
        32           Cu  tau(  32) = (  0.3333333  0.3333336  0.0000000  )
        33           Cu  tau(  33) = (  0.6702298  0.3337733 -0.0039305  )
        34           Cu  tau(  34) = ( -0.0040030  0.6702300 -0.0039305  )
        35           Cu  tau(  35) = (  0.3337731  0.6702300 -0.0039305  )
        36           Cu  tau(  36) = (  0.6666666  0.6666667 -0.0038005  )
        37           C   tau(  37) = (  0.3333329  0.3333330  0.0475161  )
        38           O   tau(  38) = (  0.3333326  0.3333326  0.0762755  )

     number of k points=    34  Marzari-Vanderbilt smearing, width (Ry)=  0.0073
                       cart. coord. in units 2pi/alat
        k(    1) = (   0.0000000   0.0000000   0.0000000), wk =   0.0312500
        k(    2) = (   0.0000000   0.1443376   0.0000000), wk =   0.0625000
        k(    3) = (   0.0000000   0.2886753   0.0000000), wk =   0.0625000
        k(    4) = (   0.0000000   0.4330129   0.0000000), wk =   0.0625000
        k(    5) = (   0.0000000  -0.5773505   0.0000000), wk =   0.0312500
        k(    6) = (   0.1250000  -0.0721688   0.0000000), wk =   0.0625000
        k(    7) = (   0.1250000   0.0721688   0.0000000), wk =   0.0625000
        k(    8) = (   0.1250000   0.2165065   0.0000000), wk =   0.0625000
        k(    9) = (   0.1250000   0.3608441   0.0000000), wk =   0.0625000
        k(   10) = (   0.1250000  -0.6495194   0.0000000), wk =   0.0625000
        k(   11) = (   0.1250000  -0.5051817   0.0000000), wk =   0.0625000
        k(   12) = (   0.1250000  -0.3608441   0.0000000), wk =   0.0625000
        k(   13) = (   0.1250000  -0.2165065   0.0000000), wk =   0.0625000
        k(   14) = (   0.2500000  -0.1443376   0.0000000), wk =   0.0625000
        k(   15) = (   0.2500000   0.0000000   0.0000000), wk =   0.0625000
        k(   16) = (   0.2500000   0.1443376   0.0000000), wk =   0.0625000
        k(   17) = (   0.2500000   0.2886753   0.0000000), wk =   0.0625000
        k(   18) = (   0.2500000  -0.7216882   0.0000000), wk =   0.0625000
        k(   19) = (   0.2500000  -0.5773505   0.0000000), wk =   0.0625000
        k(   20) = (   0.2500000  -0.4330129   0.0000000), wk =   0.0625000
        k(   21) = (   0.2500000  -0.2886753   0.0000000), wk =   0.0625000
        k(   22) = (   0.3750000  -0.2165065   0.0000000), wk =   0.0625000
        k(   23) = (   0.3750000  -0.0721688   0.0000000), wk =   0.0625000
        k(   24) = (   0.3750000   0.0721688   0.0000000), wk =   0.0625000
        k(   25) = (   0.3750000   0.2165065   0.0000000), wk =   0.0625000
        k(   26) = (   0.3750000  -0.7938570   0.0000000), wk =   0.0625000
        k(   27) = (   0.3750000  -0.6495194   0.0000000), wk =   0.0625000
        k(   28) = (   0.3750000  -0.5051817   0.0000000), wk =   0.0625000
        k(   29) = (   0.3750000  -0.3608441   0.0000000), wk =   0.0625000
        k(   30) = (  -0.5000000   0.2886753   0.0000000), wk =   0.0312500
        k(   31) = (  -0.5000000   0.4330129   0.0000000), wk =   0.0625000
        k(   32) = (  -0.5000000   0.5773505   0.0000000), wk =   0.0625000
        k(   33) = (  -0.5000000   0.7216882   0.0000000), wk =   0.0625000
        k(   34) = (  -0.5000000  -0.2886753   0.0000000), wk =   0.0312500

                       cryst. coord.
        k(    1) = (   0.0000000   0.0000000   0.0000000), wk =   0.0312500
        k(    2) = (   0.0000000   0.1250000   0.0000000), wk =   0.0625000
        k(    3) = (   0.0000000   0.2500000   0.0000000), wk =   0.0625000
        k(    4) = (   0.0000000   0.3750000   0.0000000), wk =   0.0625000
        k(    5) = (   0.0000000  -0.5000000   0.0000000), wk =   0.0312500
        k(    6) = (   0.1250000   0.0000000   0.0000000), wk =   0.0625000
        k(    7) = (   0.1250000   0.1250000   0.0000000), wk =   0.0625000
        k(    8) = (   0.1250000   0.2500000   0.0000000), wk =   0.0625000
        k(    9) = (   0.1250000   0.3750000   0.0000000), wk =   0.0625000
        k(   10) = (   0.1250000  -0.5000000   0.0000000), wk =   0.0625000
        k(   11) = (   0.1250000  -0.3750000   0.0000000), wk =   0.0625000
        k(   12) = (   0.1250000  -0.2500000   0.0000000), wk =   0.0625000
        k(   13) = (   0.1250000  -0.1250000   0.0000000), wk =   0.0625000
        k(   14) = (   0.2500000   0.0000000   0.0000000), wk =   0.0625000
        k(   15) = (   0.2500000   0.1250000   0.0000000), wk =   0.0625000
        k(   16) = (   0.2500000   0.2500000   0.0000000), wk =   0.0625000
        k(   17) = (   0.2500000   0.3750000   0.0000000), wk =   0.0625000
        k(   18) = (   0.2500000  -0.5000000   0.0000000), wk =   0.0625000
        k(   19) = (   0.2500000  -0.3750000   0.0000000), wk =   0.0625000
        k(   20) = (   0.2500000  -0.2500000   0.0000000), wk =   0.0625000
        k(   21) = (   0.2500000  -0.1250000   0.0000000), wk =   0.0625000
        k(   22) = (   0.3750000   0.0000000   0.0000000), wk =   0.0625000
        k(   23) = (   0.3750000   0.1250000   0.0000000), wk =   0.0625000
        k(   24) = (   0.3750000   0.2500000   0.0000000), wk =   0.0625000
        k(   25) = (   0.3750000   0.3750000   0.0000000), wk =   0.0625000
        k(   26) = (   0.3750000  -0.5000000   0.0000000), wk =   0.0625000
        k(   27) = (   0.3750000  -0.3750000   0.0000000), wk =   0.0625000
        k(   28) = (   0.3750000  -0.2500000   0.0000000), wk =   0.0625000
        k(   29) = (   0.3750000  -0.1250000   0.0000000), wk =   0.0625000
        k(   30) = (  -0.5000000   0.0000000   0.0000000), wk =   0.0312500
        k(   31) = (  -0.5000000   0.1250000   0.0000000), wk =   0.0625000
        k(   32) = (  -0.5000000   0.2500000   0.0000000), wk =   0.0625000
        k(   33) = (  -0.5000000   0.3750000   0.0000000), wk =   0.0625000
        k(   34) = (  -0.5000000  -0.5000000   0.0000000), wk =   0.0312500

     Dense  grid:  3875677 G-vectors     FFT dimensions: ( 120, 120, 625)

     Smooth grid:   980529 G-vectors     FFT dimensions: (  75,  75, 384)

     Estimated max dynamical RAM per process >     140.99MB

     Estimated total allocated dynamical RAM >   33838.49MB

     Solute:
       # atom     E (kcal/mol)  S (angs)
       1  Cu      1.00000000    3.00000000    given
       2  Cu      1.00000000    3.00000000    given
       3  Cu      1.00000000    3.00000000    given
       4  Cu      1.00000000    3.00000000    given
       5  Cu      1.00000000    3.00000000    given
       6  Cu      1.00000000    3.00000000    given
       7  Cu      1.00000000    3.00000000    given
       8  Cu      1.00000000    3.00000000    given
       9  Cu      1.00000000    3.00000000    given
      10  Cu      1.00000000    3.00000000    given
      11  Cu      1.00000000    3.00000000    given
      12  Cu      1.00000000    3.00000000    given
      13  Cu      1.00000000    3.00000000    given
      14  Cu      1.00000000    3.00000000    given
      15  Cu      1.00000000    3.00000000    given
      16  Cu      1.00000000    3.00000000    given
      17  Cu      1.00000000    3.00000000    given
      18  Cu      1.00000000    3.00000000    given
      19  Cu      1.00000000    3.00000000    given
      20  Cu      1.00000000    3.00000000    given
      21  Cu      1.00000000    3.00000000    given
      22  Cu      1.00000000    3.00000000    given
      23  Cu      1.00000000    3.00000000    given
      24  Cu      1.00000000    3.00000000    given
      25  Cu      1.00000000    3.00000000    given
      26  Cu      1.00000000    3.00000000    given
      27  Cu      1.00000000    3.00000000    given
      28  Cu      1.00000000    3.00000000    given
      29  Cu      1.00000000    3.00000000    given
      30  Cu      1.00000000    3.00000000    given
      31  Cu      1.00000000    3.00000000    given
      32  Cu      1.00000000    3.00000000    given
      33  Cu      1.00000000    3.00000000    given
      34  Cu      1.00000000    3.00000000    given
      35  Cu      1.00000000    3.00000000    given
      36  Cu      1.00000000    3.00000000    given
      37  C       0.07000000    3.55000000    OPLS-AA
      38  O       0.17000000    3.00000000    OPLS-AA

     Wall:
       Density =    0.01000000  bohr^-3
       E       =    0.10000000  kcal/mol
       S       =    4.00000000  angs

     L.J. cutoff radius =       5.0000  S


     Laue-RISM info
     --------------
     closure equation        =           KH
     temperature             =     300.0000  kelvin
     coulomb smearing radius =       2.0000  bohr
     number of solvent sites =            6
     solvent sites           =    O/h2o   H/h2o   L/h2o       K
     solvent sites           =     O/oh    H/oh
     #R-grids in local       =        11250
     #Rz-grids (unit-cell)   =          384
     #Rz-grids (expand-cell) =          720
     #G-grids in local       =         4081
     #Gxy-grids in local     =           17
     #Gxy-shells in local    =           17
     number of iterations    =        10000
     convergence threshold   =      1.0E-06
     convergence level       =       0.8000
     size of MDIIS           =           20
     step of MDIIS           =       0.8000
     solvent cutoff          =     249.8954  Ry
     Custom grid:   980529 G-vectors     FFT dimensions: (  75,  75, 384)

     Boundary Conditions        : Vacuum-Slab-Solvent
     unit-cell (in bohr)        : [ -37.794523  37.794523]
     expand-cell (in bohr)      : [ -37.794523 103.934937]
     solvent of right (in bohr) : [  -8.267552 103.934937]
     buffer  of right (in bohr) : [ -18.109875  -8.267552]
     Gxy = 0 of right (in bohr) : [ -18.109875  82.872365]
     repulsive wall (in bohr)   : [  -Infinity -10.486273]
     reference of potential     : right-hand side
     #grids to fit at edges of unit-cell =    4
     Laue grid:     3865 Gxy-vectors     FFT dimensions: (  75,  75, 720)


     MPI for site:
     number of site groups     =            1
     #procs in a site group    =          240
     this proc in a site group =            0
     the root in a site group  =            0
     this site group           =            0
     inter-site group comm.    =           23
     intra-site group comm.    =            5
     total number of sites     =            6
     starting index of sites   =            1
     ending index of sites     =            6


     MPI for task:
     #procs in a task group    =          240
     this proc in a task group =            0
     the root in a task group  =            0
     task group comm.          =            5


     Initial potential from superposition of free atoms
     Check: negative starting charge=   -0.001648

     starting charge  405.99177, renormalised to  406.00000

     Correlation function is read from file


     negative rho (up, down):  1.648E-03 0.000E+00


     %%%%%%%%%%%%%%%%%%%%%%%%%%%%%%%%%%%%%%%%%%%%%%%%%%%%%%%%%%%%%%%%%%%%%%%%
     %                                                                      %
     % You are using vdW-DF, which was implemented by the Thonhauser group. %
     % Please cite the following two papers that made this development      %
     % possible and the two reviews that describe the various versions:     %
     %                                                                      %
     %   T. Thonhauser et al., PRL 115, 136402 (2015).                      %
     %   T. Thonhauser et al., PRB 76, 125112 (2007).                       %
     %   K. Berland et al., Rep. Prog. Phys. 78, 066501 (2015).             %
     %   D.C. Langreth et al., J. Phys.: Condens. Matter 21, 084203 (2009). %
     %                                                                      %
     %                                                                      %
     % If you are calculating the stress with vdW-DF, please also cite:     %
     %                                                                      %
     %   R. Sabatini et al., J. Phys.: Condens. Matter 24, 424209 (2012).   %
     %                                                                      %
     %%%%%%%%%%%%%%%%%%%%%%%%%%%%%%%%%%%%%%%%%%%%%%%%%%%%%%%%%%%%%%%%%%%%%%%%


     Carrying out vdW-DF run using the following parameters:
     Nqs    =  20  Npoints =  1024  r_max =  100.000
     q_mesh =  0.00001000  0.04494208  0.09755937  0.15916263
               0.23128650  0.31572767  0.41458969  0.53033537
               0.66584808  0.82450364  1.01025438  1.22772762
               1.48234092  1.78043706  2.12944203  2.53805004
               3.01644009  3.57652955  4.23227104  5.00000000


     -----------------------------------------------
     Non-local corr. energy    =      22.28442037 Ry
     -----------------------------------------------


     Laue-RISM Calculation

     convergence threshold    = 6.310E-06
     iter. #     1  RMS(g-h-1)= 3.559E-02  nbox=  0
     iter. #     2  RMS(g-h-1)= 2.753E-02  nbox=  1
     iter. #     3  RMS(g-h-1)= 1.756E-02  nbox=  2
     iter. #     4  RMS(g-h-1)= 8.865E-03  nbox=  3
     iter. #     5  RMS(g-h-1)= 7.866E-03  nbox=  4
     iter. #     6  RMS(g-h-1)= 6.808E-03  nbox=  5
     iter. #     7  RMS(g-h-1)= 5.935E-03  nbox=  6
     iter. #     8  RMS(g-h-1)= 5.306E-03  nbox=  7
     iter. #     9  RMS(g-h-1)= 4.867E-03  nbox=  8
     iter. #    10  RMS(g-h-1)= 4.625E-03  nbox=  9
     iter. #    11  RMS(g-h-1)= 4.298E-03  nbox= 10
     iter. #    12  RMS(g-h-1)= 3.977E-03  nbox= 11
     iter. #    13  RMS(g-h-1)= 3.733E-03  nbox= 12
     iter. #    14  RMS(g-h-1)= 3.618E-03  nbox= 13
     iter. #    15  RMS(g-h-1)= 3.310E-03  nbox= 14
     iter. #    16  RMS(g-h-1)= 2.997E-03  nbox= 15
     iter. #    17  RMS(g-h-1)= 2.678E-03  nbox= 16
     iter. #    18  RMS(g-h-1)= 2.509E-03  nbox= 17
     iter. #    19  RMS(g-h-1)= 2.233E-03  nbox= 18
     iter. #    20  RMS(g-h-1)= 1.992E-03  nbox= 19
     iter. #    21  RMS(g-h-1)= 1.849E-03  nbox= 20
     iter. #    22  RMS(g-h-1)= 1.778E-03  nbox= 20
     iter. #    23  RMS(g-h-1)= 1.651E-03  nbox= 20
     iter. #    24  RMS(g-h-1)= 1.551E-03  nbox= 20
     iter. #    25  RMS(g-h-1)= 1.501E-03  nbox= 20
     iter. #    26  RMS(g-h-1)= 1.448E-03  nbox= 20
     iter. #    27  RMS(g-h-1)= 1.391E-03  nbox= 20
     iter. #    28  RMS(g-h-1)= 1.365E-03  nbox= 20
     iter. #    29  RMS(g-h-1)= 1.312E-03  nbox= 20
     iter. #    30  RMS(g-h-1)= 1.292E-03  nbox= 20
     iter. #    31  RMS(g-h-1)= 1.231E-03  nbox= 20
     iter. #    32  RMS(g-h-1)= 1.187E-03  nbox= 20
     iter. #    33  RMS(g-h-1)= 1.145E-03  nbox= 20
     iter. #    34  RMS(g-h-1)= 1.086E-03  nbox= 20
     iter. #    35  RMS(g-h-1)= 1.067E-03  nbox= 20
     iter. #    36  RMS(g-h-1)= 1.038E-03  nbox= 20
     iter. #    37  RMS(g-h-1)= 1.021E-03  nbox= 20
     iter. #    38  RMS(g-h-1)= 9.822E-04  nbox= 20
     iter. #    39  RMS(g-h-1)= 9.685E-04  nbox= 20
     iter. #    40  RMS(g-h-1)= 9.406E-04  nbox= 20
     iter. #    41  RMS(g-h-1)= 9.314E-04  nbox= 20
     iter. #    42  RMS(g-h-1)= 8.818E-04  nbox= 20
     iter. #    43  RMS(g-h-1)= 8.686E-04  nbox= 20
     iter. #    44  RMS(g-h-1)= 8.637E-04  nbox= 20
     iter. #    45  RMS(g-h-1)= 8.498E-04  nbox= 20
     iter. #    46  RMS(g-h-1)= 8.420E-04  nbox= 20
     iter. #    47  RMS(g-h-1)= 8.337E-04  nbox= 20
     iter. #    48  RMS(g-h-1)= 8.255E-04  nbox= 20
     iter. #    49  RMS(g-h-1)= 8.179E-04  nbox= 20
     iter. #    50  RMS(g-h-1)= 8.026E-04  nbox= 20
     iter. #    51  RMS(g-h-1)= 7.852E-04  nbox= 20
     iter. #    52  RMS(g-h-1)= 7.788E-04  nbox= 20
     iter. #    53  RMS(g-h-1)= 7.711E-04  nbox= 20
     iter. #    54  RMS(g-h-1)= 7.568E-04  nbox= 20
     iter. #    55  RMS(g-h-1)= 7.347E-04  nbox= 20
     iter. #    56  RMS(g-h-1)= 7.297E-04  nbox= 20
     iter. #    57  RMS(g-h-1)= 7.190E-04  nbox= 20
     iter. #    58  RMS(g-h-1)= 7.137E-04  nbox= 20
     iter. #    59  RMS(g-h-1)= 7.094E-04  nbox=  2
     iter. #    60  RMS(g-h-1)= 7.015E-04  nbox=  3
     iter. #    61  RMS(g-h-1)= 6.903E-04  nbox=  4
     iter. #    62  RMS(g-h-1)= 6.809E-04  nbox=  5
     iter. #    63  RMS(g-h-1)= 6.691E-04  nbox=  6
     iter. #    64  RMS(g-h-1)= 6.659E-04  nbox=  7
     iter. #    65  RMS(g-h-1)= 6.453E-04  nbox=  8
     iter. #    66  RMS(g-h-1)= 6.412E-04  nbox=  9
     iter. #    67  RMS(g-h-1)= 6.276E-04  nbox= 10
     iter. #    68  RMS(g-h-1)= 6.173E-04  nbox= 11
     iter. #    69  RMS(g-h-1)= 6.043E-04  nbox= 12
     iter. #    70  RMS(g-h-1)= 6.036E-04  nbox= 13
     iter. #    71  RMS(g-h-1)= 5.910E-04  nbox= 14
     iter. #    72  RMS(g-h-1)= 5.826E-04  nbox= 15
     iter. #    73  RMS(g-h-1)= 5.731E-04  nbox= 16
     iter. #    74  RMS(g-h-1)= 5.660E-04  nbox= 17
     iter. #    75  RMS(g-h-1)= 5.619E-04  nbox=  2
     iter. #    76  RMS(g-h-1)= 5.523E-04  nbox=  3
     iter. #    77  RMS(g-h-1)= 5.438E-04  nbox=  4
     iter. #    78  RMS(g-h-1)= 5.334E-04  nbox=  5
     iter. #    79  RMS(g-h-1)= 5.176E-04  nbox=  6
     iter. #    80  RMS(g-h-1)= 5.085E-04  nbox=  7
     iter. #    81  RMS(g-h-1)= 4.906E-04  nbox=  8
     iter. #    82  RMS(g-h-1)= 4.748E-04  nbox=  9
     iter. #    83  RMS(g-h-1)= 4.646E-04  nbox= 10
     iter. #    84  RMS(g-h-1)= 4.514E-04  nbox= 11
     iter. #    85  RMS(g-h-1)= 4.495E-04  nbox= 12
     iter. #    86  RMS(g-h-1)= 4.400E-04  nbox= 13
     iter. #    87  RMS(g-h-1)= 4.328E-04  nbox= 14
     iter. #    88  RMS(g-h-1)= 4.293E-04  nbox= 15
     iter. #    89  RMS(g-h-1)= 4.203E-04  nbox= 16
     iter. #    90  RMS(g-h-1)= 4.118E-04  nbox= 17
     iter. #    91  RMS(g-h-1)= 4.100E-04  nbox=  2
     iter. #    92  RMS(g-h-1)= 4.008E-04  nbox=  3
     iter. #    93  RMS(g-h-1)= 3.919E-04  nbox=  4
     iter. #    94  RMS(g-h-1)= 3.794E-04  nbox=  5
     iter. #    95  RMS(g-h-1)= 3.745E-04  nbox=  6
     iter. #    96  RMS(g-h-1)= 3.659E-04  nbox=  7
     iter. #    97  RMS(g-h-1)= 3.584E-04  nbox=  8
     iter. #    98  RMS(g-h-1)= 3.519E-04  nbox=  9
     iter. #    99  RMS(g-h-1)= 3.470E-04  nbox= 10
     iter. #   100  RMS(g-h-1)= 3.415E-04  nbox= 11
     iter. #   101  RMS(g-h-1)= 3.419E-04  nbox= 12
     iter. #   102  RMS(g-h-1)= 3.355E-04  nbox= 13
     iter. #   103  RMS(g-h-1)= 3.310E-04  nbox= 14
     iter. #   104  RMS(g-h-1)= 3.260E-04  nbox= 15
     iter. #   105  RMS(g-h-1)= 3.207E-04  nbox= 16
     iter. #   106  RMS(g-h-1)= 3.177E-04  nbox= 17
     iter. #   107  RMS(g-h-1)= 3.154E-04  nbox=  2
     iter. #   108  RMS(g-h-1)= 3.115E-04  nbox=  3
     iter. #   109  RMS(g-h-1)= 3.074E-04  nbox=  4
     iter. #   110  RMS(g-h-1)= 3.032E-04  nbox=  5
     iter. #   111  RMS(g-h-1)= 2.984E-04  nbox=  6
     iter. #   112  RMS(g-h-1)= 2.945E-04  nbox=  7
     iter. #   113  RMS(g-h-1)= 2.922E-04  nbox=  8
     iter. #   114  RMS(g-h-1)= 2.879E-04  nbox=  9
     iter. #   115  RMS(g-h-1)= 2.839E-04  nbox= 10
     iter. #   116  RMS(g-h-1)= 2.803E-04  nbox= 11
     iter. #   117  RMS(g-h-1)= 2.769E-04  nbox= 12
     iter. #   118  RMS(g-h-1)= 2.759E-04  nbox= 13
     iter. #   119  RMS(g-h-1)= 2.729E-04  nbox= 14
     iter. #   120  RMS(g-h-1)= 2.702E-04  nbox= 15
     iter. #   121  RMS(g-h-1)= 2.674E-04  nbox= 16
     iter. #   122  RMS(g-h-1)= 2.648E-04  nbox= 17
     iter. #   123  RMS(g-h-1)= 2.643E-04  nbox=  2
     iter. #   124  RMS(g-h-1)= 2.620E-04  nbox=  3
     iter. #   125  RMS(g-h-1)= 2.603E-04  nbox=  4
     iter. #   126  RMS(g-h-1)= 2.584E-04  nbox=  5
     iter. #   127  RMS(g-h-1)= 2.571E-04  nbox=  6
     iter. #   128  RMS(g-h-1)= 2.556E-04  nbox=  7
     iter. #   129  RMS(g-h-1)= 2.536E-04  nbox=  8
     iter. #   130  RMS(g-h-1)= 2.513E-04  nbox=  9
     iter. #   131  RMS(g-h-1)= 2.485E-04  nbox= 10
     iter. #   132  RMS(g-h-1)= 2.465E-04  nbox= 11
     iter. #   133  RMS(g-h-1)= 2.456E-04  nbox= 12
     iter. #   134  RMS(g-h-1)= 2.441E-04  nbox= 13
     iter. #   135  RMS(g-h-1)= 2.426E-04  nbox= 14
     iter. #   136  RMS(g-h-1)= 2.408E-04  nbox= 15
     iter. #   137  RMS(g-h-1)= 2.398E-04  nbox= 16
     iter. #   138  RMS(g-h-1)= 2.375E-04  nbox= 17
     iter. #   139  RMS(g-h-1)= 2.372E-04  nbox=  2
     iter. #   140  RMS(g-h-1)= 2.344E-04  nbox=  3
     iter. #   141  RMS(g-h-1)= 2.322E-04  nbox=  4
     iter. #   142  RMS(g-h-1)= 2.309E-04  nbox=  5
     iter. #   143  RMS(g-h-1)= 2.294E-04  nbox=  6
     iter. #   144  RMS(g-h-1)= 2.274E-04  nbox=  7
     iter. #   145  RMS(g-h-1)= 2.255E-04  nbox=  8
     iter. #   146  RMS(g-h-1)= 2.236E-04  nbox=  9
     iter. #   147  RMS(g-h-1)= 2.229E-04  nbox= 10
     iter. #   148  RMS(g-h-1)= 2.211E-04  nbox= 11
     iter. #   149  RMS(g-h-1)= 2.194E-04  nbox= 12
     iter. #   150  RMS(g-h-1)= 2.178E-04  nbox= 13
     iter. #   151  RMS(g-h-1)= 2.158E-04  nbox= 14
     iter. #   152  RMS(g-h-1)= 2.149E-04  nbox= 15
     iter. #   153  RMS(g-h-1)= 2.132E-04  nbox= 16
     iter. #   154  RMS(g-h-1)= 2.118E-04  nbox= 17
     iter. #   155  RMS(g-h-1)= 2.114E-04  nbox=  2
     iter. #   156  RMS(g-h-1)= 2.095E-04  nbox=  3
     iter. #   157  RMS(g-h-1)= 2.080E-04  nbox=  4
     iter. #   158  RMS(g-h-1)= 2.065E-04  nbox=  5
     iter. #   159  RMS(g-h-1)= 2.054E-04  nbox=  6
     iter. #   160  RMS(g-h-1)= 2.045E-04  nbox=  7
     iter. #   161  RMS(g-h-1)= 2.029E-04  nbox=  8
     iter. #   162  RMS(g-h-1)= 2.018E-04  nbox=  9
     iter. #   163  RMS(g-h-1)= 2.003E-04  nbox= 10
     iter. #   164  RMS(g-h-1)= 2.034E-04  nbox= 11
     iter. #   165  RMS(g-h-1)= 1.979E-04  nbox= 12
     iter. #   166  RMS(g-h-1)= 1.972E-04  nbox= 13
     iter. #   167  RMS(g-h-1)= 1.960E-04  nbox= 14
     iter. #   168  RMS(g-h-1)= 1.949E-04  nbox= 15
     iter. #   169  RMS(g-h-1)= 1.938E-04  nbox= 16
     iter. #   170  RMS(g-h-1)= 1.930E-04  nbox= 17
     iter. #   171  RMS(g-h-1)= 1.926E-04  nbox=  2
     iter. #   172  RMS(g-h-1)= 1.912E-04  nbox=  3
     iter. #   173  RMS(g-h-1)= 1.898E-04  nbox=  4
     iter. #   174  RMS(g-h-1)= 1.883E-04  nbox=  5
     iter. #   175  RMS(g-h-1)= 1.885E-04  nbox=  6
     iter. #   176  RMS(g-h-1)= 1.866E-04  nbox=  7
     iter. #   177  RMS(g-h-1)= 1.858E-04  nbox=  8
     iter. #   178  RMS(g-h-1)= 1.847E-04  nbox=  9
     iter. #   179  RMS(g-h-1)= 1.835E-04  nbox= 10
     iter. #   180  RMS(g-h-1)= 1.833E-04  nbox= 11
     iter. #   181  RMS(g-h-1)= 1.812E-04  nbox= 12
     iter. #   182  RMS(g-h-1)= 1.806E-04  nbox= 13
     iter. #   183  RMS(g-h-1)= 1.784E-04  nbox= 14
     iter. #   184  RMS(g-h-1)= 1.771E-04  nbox= 15
     iter. #   185  RMS(g-h-1)= 1.755E-04  nbox= 16
     iter. #   186  RMS(g-h-1)= 1.757E-04  nbox= 17
     iter. #   187  RMS(g-h-1)= 1.757E-04  nbox=  2
     iter. #   188  RMS(g-h-1)= 1.738E-04  nbox=  3
     iter. #   189  RMS(g-h-1)= 1.725E-04  nbox=  4
     iter. #   190  RMS(g-h-1)= 1.711E-04  nbox=  5
     iter. #   191  RMS(g-h-1)= 1.696E-04  nbox=  6
     iter. #   192  RMS(g-h-1)= 1.681E-04  nbox=  7
     iter. #   193  RMS(g-h-1)= 1.672E-04  nbox=  8
     iter. #   194  RMS(g-h-1)= 1.658E-04  nbox=  9
     iter. #   195  RMS(g-h-1)= 1.640E-04  nbox= 10
     iter. #   196  RMS(g-h-1)= 1.623E-04  nbox= 11
     iter. #   197  RMS(g-h-1)= 1.599E-04  nbox= 12
     iter. #   198  RMS(g-h-1)= 1.609E-04  nbox= 13
     iter. #   199  RMS(g-h-1)= 1.566E-04  nbox= 14
     iter. #   200  RMS(g-h-1)= 1.545E-04  nbox= 15
     iter. #   201  RMS(g-h-1)= 1.522E-04  nbox= 16
     iter. #   202  RMS(g-h-1)= 1.503E-04  nbox= 17
     iter. #   203  RMS(g-h-1)= 1.497E-04  nbox=  2
     iter. #   204  RMS(g-h-1)= 1.479E-04  nbox=  3
     iter. #   205  RMS(g-h-1)= 1.464E-04  nbox=  4
     iter. #   206  RMS(g-h-1)= 1.454E-04  nbox=  5
     iter. #   207  RMS(g-h-1)= 1.448E-04  nbox=  6
     iter. #   208  RMS(g-h-1)= 1.436E-04  nbox=  7
     iter. #   209  RMS(g-h-1)= 1.423E-04  nbox=  8
     iter. #   210  RMS(g-h-1)= 1.407E-04  nbox=  9
     iter. #   211  RMS(g-h-1)= 1.391E-04  nbox= 10
     iter. #   212  RMS(g-h-1)= 1.371E-04  nbox= 11
     iter. #   213  RMS(g-h-1)= 1.405E-04  nbox= 12
     iter. #   214  RMS(g-h-1)= 1.349E-04  nbox= 13
     iter. #   215  RMS(g-h-1)= 1.344E-04  nbox= 14
     iter. #   216  RMS(g-h-1)= 1.326E-04  nbox= 15
     iter. #   217  RMS(g-h-1)= 1.313E-04  nbox= 16
     iter. #   218  RMS(g-h-1)= 1.302E-04  nbox= 17
     iter. #   219  RMS(g-h-1)= 1.296E-04  nbox=  2
     iter. #   220  RMS(g-h-1)= 1.283E-04  nbox=  3
     iter. #   221  RMS(g-h-1)= 1.270E-04  nbox=  4
     iter. #   222  RMS(g-h-1)= 1.259E-04  nbox=  5
     iter. #   223  RMS(g-h-1)= 1.249E-04  nbox=  6
     iter. #   224  RMS(g-h-1)= 1.241E-04  nbox=  7
     iter. #   225  RMS(g-h-1)= 1.228E-04  nbox=  8
     iter. #   226  RMS(g-h-1)= 1.214E-04  nbox=  9
     iter. #   227  RMS(g-h-1)= 1.202E-04  nbox= 10
     iter. #   228  RMS(g-h-1)= 1.194E-04  nbox= 11
     iter. #   229  RMS(g-h-1)= 1.184E-04  nbox= 12
     iter. #   230  RMS(g-h-1)= 1.183E-04  nbox= 13
     iter. #   231  RMS(g-h-1)= 1.171E-04  nbox= 14
     iter. #   232  RMS(g-h-1)= 1.163E-04  nbox= 15
     iter. #   233  RMS(g-h-1)= 1.150E-04  nbox= 16
     iter. #   234  RMS(g-h-1)= 1.161E-04  nbox= 17
     iter. #   235  RMS(g-h-1)= 1.168E-04  nbox=  2
     iter. #   236  RMS(g-h-1)= 1.136E-04  nbox=  3
     iter. #   237  RMS(g-h-1)= 1.122E-04  nbox=  4
     iter. #   238  RMS(g-h-1)= 1.109E-04  nbox=  5
     iter. #   239  RMS(g-h-1)= 1.100E-04  nbox=  6
     iter. #   240  RMS(g-h-1)= 1.094E-04  nbox=  7
     iter. #   241  RMS(g-h-1)= 1.085E-04  nbox=  8
     iter. #   242  RMS(g-h-1)= 1.071E-04  nbox=  9
     iter. #   243  RMS(g-h-1)= 1.059E-04  nbox= 10
     iter. #   244  RMS(g-h-1)= 1.047E-04  nbox= 11
     iter. #   245  RMS(g-h-1)= 1.038E-04  nbox= 12
     iter. #   246  RMS(g-h-1)= 1.026E-04  nbox= 13
     iter. #   247  RMS(g-h-1)= 1.011E-04  nbox= 14
     iter. #   248  RMS(g-h-1)= 9.961E-05  nbox= 15
     iter. #   249  RMS(g-h-1)= 9.884E-05  nbox= 16
     iter. #   250  RMS(g-h-1)= 9.744E-05  nbox= 17
     iter. #   251  RMS(g-h-1)= 9.724E-05  nbox=  2
     iter. #   252  RMS(g-h-1)= 9.574E-05  nbox=  3
     iter. #   253  RMS(g-h-1)= 9.455E-05  nbox=  4
     iter. #   254  RMS(g-h-1)= 9.368E-05  nbox=  5
     iter. #   255  RMS(g-h-1)= 9.325E-05  nbox=  6
     iter. #   256  RMS(g-h-1)= 9.218E-05  nbox=  7
     iter. #   257  RMS(g-h-1)= 9.123E-05  nbox=  8
     iter. #   258  RMS(g-h-1)= 9.023E-05  nbox=  9
     iter. #   259  RMS(g-h-1)= 8.913E-05  nbox= 10
     iter. #   260  RMS(g-h-1)= 8.947E-05  nbox= 11
     iter. #   261  RMS(g-h-1)= 8.756E-05  nbox= 12
     iter. #   262  RMS(g-h-1)= 8.668E-05  nbox= 13
     iter. #   263  RMS(g-h-1)= 8.553E-05  nbox= 14
     iter. #   264  RMS(g-h-1)= 8.447E-05  nbox= 15
     iter. #   265  RMS(g-h-1)= 8.353E-05  nbox= 16
     iter. #   266  RMS(g-h-1)= 8.303E-05  nbox= 17
     iter. #   267  RMS(g-h-1)= 8.273E-05  nbox=  2
     iter. #   268  RMS(g-h-1)= 8.178E-05  nbox=  3
     iter. #   269  RMS(g-h-1)= 8.099E-05  nbox=  4
     iter. #   270  RMS(g-h-1)= 8.026E-05  nbox=  5
     iter. #   271  RMS(g-h-1)= 7.954E-05  nbox=  6
     iter. #   272  RMS(g-h-1)= 7.930E-05  nbox=  7
     iter. #   273  RMS(g-h-1)= 7.865E-05  nbox=  8
     iter. #   274  RMS(g-h-1)= 7.804E-05  nbox=  9
     iter. #   275  RMS(g-h-1)= 7.741E-05  nbox= 10
     iter. #   276  RMS(g-h-1)= 7.667E-05  nbox= 11
     iter. #   277  RMS(g-h-1)= 7.711E-05  nbox= 12
     iter. #   278  RMS(g-h-1)= 7.532E-05  nbox= 13
     iter. #   279  RMS(g-h-1)= 7.514E-05  nbox= 14
     iter. #   280  RMS(g-h-1)= 7.422E-05  nbox= 15
     iter. #   281  RMS(g-h-1)= 7.341E-05  nbox= 16
     iter. #   282  RMS(g-h-1)= 7.271E-05  nbox= 17
     iter. #   283  RMS(g-h-1)= 7.255E-05  nbox=  2
     iter. #   284  RMS(g-h-1)= 7.179E-05  nbox=  3
     iter. #   285  RMS(g-h-1)= 7.104E-05  nbox=  4
     iter. #   286  RMS(g-h-1)= 7.039E-05  nbox=  5
     iter. #   287  RMS(g-h-1)= 6.996E-05  nbox=  6
     iter. #   288  RMS(g-h-1)= 6.938E-05  nbox=  7
     iter. #   289  RMS(g-h-1)= 6.868E-05  nbox=  8
     iter. #   290  RMS(g-h-1)= 6.805E-05  nbox=  9
     iter. #   291  RMS(g-h-1)= 6.741E-05  nbox= 10
     iter. #   292  RMS(g-h-1)= 6.671E-05  nbox= 11
     iter. #   293  RMS(g-h-1)= 6.611E-05  nbox= 12
     iter. #   294  RMS(g-h-1)= 6.583E-05  nbox= 13
     iter. #   295  RMS(g-h-1)= 6.539E-05  nbox= 14
     iter. #   296  RMS(g-h-1)= 6.501E-05  nbox= 15
     iter. #   297  RMS(g-h-1)= 6.444E-05  nbox= 16
     iter. #   298  RMS(g-h-1)= 6.395E-05  nbox= 17
     iter. #   299  RMS(g-h-1)= 6.418E-05  nbox=  2
     iter. #   300  RMS(g-h-1)= 6.338E-05  nbox=  3
     iter. #   301  RMS(g-h-1)= 6.291E-05  nbox=  4
     iter. #   302  RMS(g-h-1)= 6.247E-05  nbox=  5
     iter. #   303  RMS(g-h-1)= 6.217E-05  nbox=  6
     iter. #   304  RMS(g-h-1)= 6.190E-05  nbox=  7
     iter. #   305  RMS(g-h-1)= 6.155E-05  nbox=  8
     iter. #   306  RMS(g-h-1)= 6.125E-05  nbox=  9
     iter. #   307  RMS(g-h-1)= 6.085E-05  nbox= 10
     iter. #   308  RMS(g-h-1)= 6.178E-05  nbox= 11
     iter. #   309  RMS(g-h-1)= 6.029E-05  nbox= 12
     iter. #   310  RMS(g-h-1)= 6.026E-05  nbox= 13
     iter. #   311  RMS(g-h-1)= 5.988E-05  nbox= 14
     iter. #   312  RMS(g-h-1)= 5.957E-05  nbox= 15
     iter. #   313  RMS(g-h-1)= 5.925E-05  nbox= 16
     iter. #   314  RMS(g-h-1)= 5.917E-05  nbox= 17
     iter. #   315  RMS(g-h-1)= 5.908E-05  nbox=  2
     iter. #   316  RMS(g-h-1)= 5.872E-05  nbox=  3
     iter. #   317  RMS(g-h-1)= 5.843E-05  nbox=  4
     iter. #   318  RMS(g-h-1)= 5.811E-05  nbox=  5
     iter. #   319  RMS(g-h-1)= 5.783E-05  nbox=  6
     iter. #   320  RMS(g-h-1)= 5.760E-05  nbox=  7
     iter. #   321  RMS(g-h-1)= 5.749E-05  nbox=  8
     iter. #   322  RMS(g-h-1)= 5.727E-05  nbox=  9
     iter. #   323  RMS(g-h-1)= 5.707E-05  nbox= 10
     iter. #   324  RMS(g-h-1)= 5.681E-05  nbox= 11
     iter. #   325  RMS(g-h-1)= 5.651E-05  nbox= 12
     iter. #   326  RMS(g-h-1)= 5.731E-05  nbox= 13
     iter. #   327  RMS(g-h-1)= 5.609E-05  nbox= 14
     iter. #   328  RMS(g-h-1)= 5.615E-05  nbox= 15
     iter. #   329  RMS(g-h-1)= 5.581E-05  nbox= 16
     iter. #   330  RMS(g-h-1)= 5.558E-05  nbox= 17
     iter. #   331  RMS(g-h-1)= 5.549E-05  nbox=  2
     iter. #   332  RMS(g-h-1)= 5.523E-05  nbox=  3
     iter. #   333  RMS(g-h-1)= 5.500E-05  nbox=  4
     iter. #   334  RMS(g-h-1)= 5.582E-05  nbox=  5
     iter. #   335  RMS(g-h-1)= 5.461E-05  nbox=  6
     iter. #   336  RMS(g-h-1)= 5.465E-05  nbox=  7
     iter. #   337  RMS(g-h-1)= 5.441E-05  nbox=  8
     iter. #   338  RMS(g-h-1)= 5.429E-05  nbox=  9
     iter. #   339  RMS(g-h-1)= 5.416E-05  nbox= 10
     iter. #   340  RMS(g-h-1)= 5.407E-05  nbox= 11
     iter. #   341  RMS(g-h-1)= 5.398E-05  nbox= 12
     iter. #   342  RMS(g-h-1)= 5.384E-05  nbox= 13
     iter. #   343  RMS(g-h-1)= 5.367E-05  nbox= 14
     iter. #   344  RMS(g-h-1)= 5.350E-05  nbox= 15
     iter. #   345  RMS(g-h-1)= 5.333E-05  nbox= 16
     iter. #   346  RMS(g-h-1)= 5.313E-05  nbox= 17
     iter. #   347  RMS(g-h-1)= 5.304E-05  nbox=  2
     iter. #   348  RMS(g-h-1)= 5.280E-05  nbox=  3
     iter. #   349  RMS(g-h-1)= 5.257E-05  nbox=  4
     iter. #   350  RMS(g-h-1)= 5.237E-05  nbox=  5
     iter. #   351  RMS(g-h-1)= 5.218E-05  nbox=  6
     iter. #   352  RMS(g-h-1)= 5.203E-05  nbox=  7
     iter. #   353  RMS(g-h-1)= 5.180E-05  nbox=  8
     iter. #   354  RMS(g-h-1)= 5.155E-05  nbox=  9
     iter. #   355  RMS(g-h-1)= 5.141E-05  nbox= 10
     iter. #   356  RMS(g-h-1)= 5.125E-05  nbox= 11
     iter. #   357  RMS(g-h-1)= 5.145E-05  nbox= 12
     iter. #   358  RMS(g-h-1)= 5.089E-05  nbox= 13
     iter. #   359  RMS(g-h-1)= 5.073E-05  nbox= 14
     iter. #   360  RMS(g-h-1)= 5.051E-05  nbox= 15
     iter. #   361  RMS(g-h-1)= 5.036E-05  nbox= 16
     iter. #   362  RMS(g-h-1)= 5.012E-05  nbox= 17
     iter. #   363  RMS(g-h-1)= 5.005E-05  nbox=  2
     iter. #   364  RMS(g-h-1)= 4.984E-05  nbox=  3
     iter. #   365  RMS(g-h-1)= 4.963E-05  nbox=  4
     iter. #   366  RMS(g-h-1)= 4.944E-05  nbox=  5
     iter. #   367  RMS(g-h-1)= 4.935E-05  nbox=  6
     iter. #   368  RMS(g-h-1)= 4.918E-05  nbox=  7
     iter. #   369  RMS(g-h-1)= 4.900E-05  nbox=  8
     iter. #   370  RMS(g-h-1)= 4.880E-05  nbox=  9
     iter. #   371  RMS(g-h-1)= 4.863E-05  nbox= 10
     iter. #   372  RMS(g-h-1)= 4.840E-05  nbox= 11
     iter. #   373  RMS(g-h-1)= 4.821E-05  nbox= 12
     iter. #   374  RMS(g-h-1)= 4.807E-05  nbox= 13
     iter. #   375  RMS(g-h-1)= 4.796E-05  nbox= 14
     iter. #   376  RMS(g-h-1)= 4.778E-05  nbox= 15
     iter. #   377  RMS(g-h-1)= 4.759E-05  nbox= 16
     iter. #   378  RMS(g-h-1)= 4.734E-05  nbox= 17
     iter. #   379  RMS(g-h-1)= 4.741E-05  nbox=  2
     iter. #   380  RMS(g-h-1)= 4.708E-05  nbox=  3
     iter. #   381  RMS(g-h-1)= 4.684E-05  nbox=  4
     iter. #   382  RMS(g-h-1)= 4.664E-05  nbox=  5
     iter. #   383  RMS(g-h-1)= 4.654E-05  nbox=  6
     iter. #   384  RMS(g-h-1)= 4.640E-05  nbox=  7
     iter. #   385  RMS(g-h-1)= 4.626E-05  nbox=  8
     iter. #   386  RMS(g-h-1)= 4.613E-05  nbox=  9
     iter. #   387  RMS(g-h-1)= 4.599E-05  nbox= 10
     iter. #   388  RMS(g-h-1)= 4.579E-05  nbox= 11
     iter. #   389  RMS(g-h-1)= 4.557E-05  nbox= 12
     iter. #   390  RMS(g-h-1)= 4.534E-05  nbox= 13
     iter. #   391  RMS(g-h-1)= 4.518E-05  nbox= 14
     iter. #   392  RMS(g-h-1)= 4.488E-05  nbox= 15
     iter. #   393  RMS(g-h-1)= 4.462E-05  nbox= 16
     iter. #   394  RMS(g-h-1)= 4.435E-05  nbox= 17
     iter. #   395  RMS(g-h-1)= 4.441E-05  nbox=  2
     iter. #   396  RMS(g-h-1)= 4.412E-05  nbox=  3
     iter. #   397  RMS(g-h-1)= 4.394E-05  nbox=  4
     iter. #   398  RMS(g-h-1)= 4.379E-05  nbox=  5
     iter. #   399  RMS(g-h-1)= 4.370E-05  nbox=  6
     iter. #   400  RMS(g-h-1)= 4.355E-05  nbox=  7
     iter. #   401  RMS(g-h-1)= 4.341E-05  nbox=  8
     iter. #   402  RMS(g-h-1)= 4.322E-05  nbox=  9
     iter. #   403  RMS(g-h-1)= 4.310E-05  nbox= 10
     iter. #   404  RMS(g-h-1)= 4.288E-05  nbox= 11
     iter. #   405  RMS(g-h-1)= 4.310E-05  nbox= 12
     iter. #   406  RMS(g-h-1)= 4.276E-05  nbox= 13
     iter. #   407  RMS(g-h-1)= 4.266E-05  nbox= 14
     iter. #   408  RMS(g-h-1)= 4.253E-05  nbox= 15
     iter. #   409  RMS(g-h-1)= 4.238E-05  nbox= 16
     iter. #   410  RMS(g-h-1)= 4.247E-05  nbox= 17
     iter. #   411  RMS(g-h-1)= 4.254E-05  nbox=  2
     iter. #   412  RMS(g-h-1)= 4.221E-05  nbox=  3
     iter. #   413  RMS(g-h-1)= 4.206E-05  nbox=  4
     iter. #   414  RMS(g-h-1)= 4.193E-05  nbox=  5
     iter. #   415  RMS(g-h-1)= 4.183E-05  nbox=  6
     iter. #   416  RMS(g-h-1)= 4.176E-05  nbox=  7
     iter. #   417  RMS(g-h-1)= 4.169E-05  nbox=  8
     iter. #   418  RMS(g-h-1)= 4.161E-05  nbox=  9
     iter. #   419  RMS(g-h-1)= 4.152E-05  nbox= 10
     iter. #   420  RMS(g-h-1)= 4.144E-05  nbox= 11
     iter. #   421  RMS(g-h-1)= 4.136E-05  nbox= 12
     iter. #   422  RMS(g-h-1)= 4.126E-05  nbox= 13
     iter. #   423  RMS(g-h-1)= 4.123E-05  nbox= 14
     iter. #   424  RMS(g-h-1)= 4.111E-05  nbox= 15
     iter. #   425  RMS(g-h-1)= 4.101E-05  nbox= 16
     iter. #   426  RMS(g-h-1)= 4.094E-05  nbox= 17
     iter. #   427  RMS(g-h-1)= 4.091E-05  nbox=  2
     iter. #   428  RMS(g-h-1)= 4.084E-05  nbox=  3
     iter. #   429  RMS(g-h-1)= 4.078E-05  nbox=  4
     iter. #   430  RMS(g-h-1)= 4.070E-05  nbox=  5
     iter. #   431  RMS(g-h-1)= 4.063E-05  nbox=  6
     iter. #   432  RMS(g-h-1)= 4.059E-05  nbox=  7
     iter. #   433  RMS(g-h-1)= 4.053E-05  nbox=  8
     iter. #   434  RMS(g-h-1)= 4.044E-05  nbox=  9
     iter. #   435  RMS(g-h-1)= 4.035E-05  nbox= 10
     iter. #   436  RMS(g-h-1)= 4.025E-05  nbox= 11
     iter. #   437  RMS(g-h-1)= 4.015E-05  nbox= 12
     iter. #   438  RMS(g-h-1)= 4.005E-05  nbox= 13
     iter. #   439  RMS(g-h-1)= 3.999E-05  nbox= 14
     iter. #   440  RMS(g-h-1)= 3.991E-05  nbox= 15
     iter. #   441  RMS(g-h-1)= 3.981E-05  nbox= 16
     iter. #   442  RMS(g-h-1)= 3.970E-05  nbox= 17
     iter. #   443  RMS(g-h-1)= 3.969E-05  nbox=  2
     iter. #   444  RMS(g-h-1)= 3.958E-05  nbox=  3
     iter. #   445  RMS(g-h-1)= 3.947E-05  nbox=  4
     iter. #   446  RMS(g-h-1)= 3.936E-05  nbox=  5
     iter. #   447  RMS(g-h-1)= 3.928E-05  nbox=  6
     iter. #   448  RMS(g-h-1)= 3.920E-05  nbox=  7
     iter. #   449  RMS(g-h-1)= 3.908E-05  nbox=  8
     iter. #   450  RMS(g-h-1)= 3.889E-05  nbox=  9
     iter. #   451  RMS(g-h-1)= 3.872E-05  nbox= 10
     iter. #   452  RMS(g-h-1)= 3.849E-05  nbox= 11
     iter. #   453  RMS(g-h-1)= 3.829E-05  nbox= 12
     iter. #   454  RMS(g-h-1)= 3.812E-05  nbox= 13
     iter. #   455  RMS(g-h-1)= 3.803E-05  nbox= 14
     iter. #   456  RMS(g-h-1)= 3.789E-05  nbox= 15
     iter. #   457  RMS(g-h-1)= 3.776E-05  nbox= 16
     iter. #   458  RMS(g-h-1)= 3.764E-05  nbox= 17
     iter. #   459  RMS(g-h-1)= 3.762E-05  nbox=  2
     iter. #   460  RMS(g-h-1)= 3.750E-05  nbox=  3
     iter. #   461  RMS(g-h-1)= 3.738E-05  nbox=  4
     iter. #   462  RMS(g-h-1)= 3.721E-05  nbox=  5
     iter. #   463  RMS(g-h-1)= 3.708E-05  nbox=  6
     iter. #   464  RMS(g-h-1)= 3.696E-05  nbox=  7
     iter. #   465  RMS(g-h-1)= 3.679E-05  nbox=  8
     iter. #   466  RMS(g-h-1)= 3.661E-05  nbox=  9
     iter. #   467  RMS(g-h-1)= 3.644E-05  nbox= 10
     iter. #   468  RMS(g-h-1)= 3.632E-05  nbox= 11
     iter. #   469  RMS(g-h-1)= 3.619E-05  nbox= 12
     iter. #   470  RMS(g-h-1)= 3.611E-05  nbox= 13
     iter. #   471  RMS(g-h-1)= 3.603E-05  nbox= 14
     iter. #   472  RMS(g-h-1)= 3.593E-05  nbox= 15
     iter. #   473  RMS(g-h-1)= 3.584E-05  nbox= 16
     iter. #   474  RMS(g-h-1)= 3.573E-05  nbox= 17
     iter. #   475  RMS(g-h-1)= 3.570E-05  nbox=  2
     iter. #   476  RMS(g-h-1)= 3.557E-05  nbox=  3
     iter. #   477  RMS(g-h-1)= 3.542E-05  nbox=  4
     iter. #   478  RMS(g-h-1)= 3.527E-05  nbox=  5
     iter. #   479  RMS(g-h-1)= 3.516E-05  nbox=  6
     iter. #   480  RMS(g-h-1)= 3.507E-05  nbox=  7
     iter. #   481  RMS(g-h-1)= 3.496E-05  nbox=  8
     iter. #   482  RMS(g-h-1)= 3.480E-05  nbox=  9
     iter. #   483  RMS(g-h-1)= 3.462E-05  nbox= 10
     iter. #   484  RMS(g-h-1)= 3.446E-05  nbox= 11
     iter. #   485  RMS(g-h-1)= 3.431E-05  nbox= 12
     iter. #   486  RMS(g-h-1)= 3.416E-05  nbox= 13
     iter. #   487  RMS(g-h-1)= 3.402E-05  nbox= 14
     iter. #   488  RMS(g-h-1)= 3.394E-05  nbox= 15
     iter. #   489  RMS(g-h-1)= 3.385E-05  nbox= 16
     iter. #   490  RMS(g-h-1)= 3.374E-05  nbox= 17
     iter. #   491  RMS(g-h-1)= 3.371E-05  nbox=  2
     iter. #   492  RMS(g-h-1)= 3.360E-05  nbox=  3
     iter. #   493  RMS(g-h-1)= 3.347E-05  nbox=  4
     iter. #   494  RMS(g-h-1)= 3.336E-05  nbox=  5
     iter. #   495  RMS(g-h-1)= 3.326E-05  nbox=  6
     iter. #   496  RMS(g-h-1)= 3.319E-05  nbox=  7
     iter. #   497  RMS(g-h-1)= 3.309E-05  nbox=  8
     iter. #   498  RMS(g-h-1)= 3.298E-05  nbox=  9
     iter. #   499  RMS(g-h-1)= 3.286E-05  nbox= 10
     iter. #   500  RMS(g-h-1)= 3.276E-05  nbox= 11
     iter. #   501  RMS(g-h-1)= 3.265E-05  nbox= 12
     iter. #   502  RMS(g-h-1)= 3.257E-05  nbox= 13
     iter. #   503  RMS(g-h-1)= 3.251E-05  nbox= 14
     iter. #   504  RMS(g-h-1)= 3.248E-05  nbox= 15
     iter. #   505  RMS(g-h-1)= 3.243E-05  nbox= 16
     iter. #   506  RMS(g-h-1)= 3.237E-05  nbox= 17
     iter. #   507  RMS(g-h-1)= 3.236E-05  nbox=  2
     iter. #   508  RMS(g-h-1)= 3.230E-05  nbox=  3
     iter. #   509  RMS(g-h-1)= 3.224E-05  nbox=  4
     iter. #   510  RMS(g-h-1)= 3.219E-05  nbox=  5
     iter. #   511  RMS(g-h-1)= 3.214E-05  nbox=  6
     iter. #   512  RMS(g-h-1)= 3.209E-05  nbox=  7
     iter. #   513  RMS(g-h-1)= 3.205E-05  nbox=  8
     iter. #   514  RMS(g-h-1)= 3.201E-05  nbox=  9
     iter. #   515  RMS(g-h-1)= 3.195E-05  nbox= 10
     iter. #   516  RMS(g-h-1)= 3.190E-05  nbox= 11
     iter. #   517  RMS(g-h-1)= 3.185E-05  nbox= 12
     iter. #   518  RMS(g-h-1)= 3.181E-05  nbox= 13
     iter. #   519  RMS(g-h-1)= 3.176E-05  nbox= 14
     iter. #   520  RMS(g-h-1)= 3.173E-05  nbox= 15
     iter. #   521  RMS(g-h-1)= 3.171E-05  nbox= 16
     iter. #   522  RMS(g-h-1)= 3.167E-05  nbox= 17
     iter. #   523  RMS(g-h-1)= 3.166E-05  nbox=  2
     iter. #   524  RMS(g-h-1)= 3.160E-05  nbox=  3
     iter. #   525  RMS(g-h-1)= 3.155E-05  nbox=  4
     iter. #   526  RMS(g-h-1)= 3.149E-05  nbox=  5
     iter. #   527  RMS(g-h-1)= 3.143E-05  nbox=  6
     iter. #   528  RMS(g-h-1)= 3.137E-05  nbox=  7
     iter. #   529  RMS(g-h-1)= 3.133E-05  nbox=  8
     iter. #   530  RMS(g-h-1)= 3.128E-05  nbox=  9
     iter. #   531  RMS(g-h-1)= 3.121E-05  nbox= 10
     iter. #   532  RMS(g-h-1)= 3.113E-05  nbox= 11
     iter. #   533  RMS(g-h-1)= 3.107E-05  nbox= 12
     iter. #   534  RMS(g-h-1)= 3.100E-05  nbox= 13
     iter. #   535  RMS(g-h-1)= 3.094E-05  nbox= 14
     iter. #   536  RMS(g-h-1)= 3.087E-05  nbox= 15
     iter. #   537  RMS(g-h-1)= 3.082E-05  nbox= 16
     iter. #   538  RMS(g-h-1)= 3.076E-05  nbox= 17
     iter. #   539  RMS(g-h-1)= 3.074E-05  nbox=  2
     iter. #   540  RMS(g-h-1)= 3.065E-05  nbox=  3
     iter. #   541  RMS(g-h-1)= 3.057E-05  nbox=  4
     iter. #   542  RMS(g-h-1)= 3.046E-05  nbox=  5
     iter. #   543  RMS(g-h-1)= 3.038E-05  nbox=  6
     iter. #   544  RMS(g-h-1)= 3.030E-05  nbox=  7
     iter. #   545  RMS(g-h-1)= 3.025E-05  nbox=  8
     iter. #   546  RMS(g-h-1)= 3.016E-05  nbox=  9
     iter. #   547  RMS(g-h-1)= 3.006E-05  nbox= 10
     iter. #   548  RMS(g-h-1)= 2.996E-05  nbox= 11
     iter. #   549  RMS(g-h-1)= 2.984E-05  nbox= 12
     iter. #   550  RMS(g-h-1)= 2.972E-05  nbox= 13
     iter. #   551  RMS(g-h-1)= 2.960E-05  nbox= 14
     iter. #   552  RMS(g-h-1)= 2.949E-05  nbox= 15
     iter. #   553  RMS(g-h-1)= 2.940E-05  nbox= 16
     iter. #   554  RMS(g-h-1)= 2.928E-05  nbox= 17
     iter. #   555  RMS(g-h-1)= 2.925E-05  nbox=  2
     iter. #   556  RMS(g-h-1)= 2.908E-05  nbox=  3
     iter. #   557  RMS(g-h-1)= 2.894E-05  nbox=  4
     iter. #   558  RMS(g-h-1)= 2.878E-05  nbox=  5
     iter. #   559  RMS(g-h-1)= 2.863E-05  nbox=  6
     iter. #   560  RMS(g-h-1)= 2.850E-05  nbox=  7
     iter. #   561  RMS(g-h-1)= 2.845E-05  nbox=  8
     iter. #   562  RMS(g-h-1)= 2.832E-05  nbox=  9
     iter. #   563  RMS(g-h-1)= 2.821E-05  nbox= 10
     iter. #   564  RMS(g-h-1)= 2.809E-05  nbox= 11
     iter. #   565  RMS(g-h-1)= 2.797E-05  nbox= 12
     iter. #   566  RMS(g-h-1)= 2.786E-05  nbox= 13
     iter. #   567  RMS(g-h-1)= 2.776E-05  nbox= 14
     iter. #   568  RMS(g-h-1)= 2.769E-05  nbox= 15
     iter. #   569  RMS(g-h-1)= 2.753E-05  nbox= 16
     iter. #   570  RMS(g-h-1)= 2.740E-05  nbox= 17
     iter. #   571  RMS(g-h-1)= 2.736E-05  nbox=  2
     iter. #   572  RMS(g-h-1)= 2.720E-05  nbox=  3
     iter. #   573  RMS(g-h-1)= 2.707E-05  nbox=  4
     iter. #   574  RMS(g-h-1)= 2.693E-05  nbox=  5
     iter. #   575  RMS(g-h-1)= 2.679E-05  nbox=  6
     iter. #   576  RMS(g-h-1)= 2.667E-05  nbox=  7
     iter. #   577  RMS(g-h-1)= 2.660E-05  nbox=  8
     iter. #   578  RMS(g-h-1)= 2.645E-05  nbox=  9
     iter. #   579  RMS(g-h-1)= 2.630E-05  nbox= 10
     iter. #   580  RMS(g-h-1)= 2.616E-05  nbox= 11
     iter. #   581  RMS(g-h-1)= 2.602E-05  nbox= 12
     iter. #   582  RMS(g-h-1)= 2.588E-05  nbox= 13
     iter. #   583  RMS(g-h-1)= 2.573E-05  nbox= 14
     iter. #   584  RMS(g-h-1)= 2.560E-05  nbox= 15
     iter. #   585  RMS(g-h-1)= 2.551E-05  nbox= 16
     iter. #   586  RMS(g-h-1)= 2.536E-05  nbox= 17
     iter. #   587  RMS(g-h-1)= 2.531E-05  nbox=  2
     iter. #   588  RMS(g-h-1)= 2.514E-05  nbox=  3
     iter. #   589  RMS(g-h-1)= 2.499E-05  nbox=  4
     iter. #   590  RMS(g-h-1)= 2.482E-05  nbox=  5
     iter. #   591  RMS(g-h-1)= 2.467E-05  nbox=  6
     iter. #   592  RMS(g-h-1)= 2.454E-05  nbox=  7
     iter. #   593  RMS(g-h-1)= 2.447E-05  nbox=  8
     iter. #   594  RMS(g-h-1)= 2.435E-05  nbox=  9
     iter. #   595  RMS(g-h-1)= 2.423E-05  nbox= 10
     iter. #   596  RMS(g-h-1)= 2.414E-05  nbox= 11
     iter. #   597  RMS(g-h-1)= 2.404E-05  nbox= 12
     iter. #   598  RMS(g-h-1)= 2.395E-05  nbox= 13
     iter. #   599  RMS(g-h-1)= 2.386E-05  nbox= 14
     iter. #   600  RMS(g-h-1)= 2.380E-05  nbox= 15
     iter. #   601  RMS(g-h-1)= 2.374E-05  nbox= 16
     iter. #   602  RMS(g-h-1)= 2.365E-05  nbox= 17
     iter. #   603  RMS(g-h-1)= 2.364E-05  nbox=  2
     iter. #   604  RMS(g-h-1)= 2.354E-05  nbox=  3
     iter. #   605  RMS(g-h-1)= 2.347E-05  nbox=  4
     iter. #   606  RMS(g-h-1)= 2.338E-05  nbox=  5
     iter. #   607  RMS(g-h-1)= 2.343E-05  nbox=  6
     iter. #   608  RMS(g-h-1)= 2.328E-05  nbox=  7
     iter. #   609  RMS(g-h-1)= 2.323E-05  nbox=  8
     iter. #   610  RMS(g-h-1)= 2.317E-05  nbox=  9
     iter. #   611  RMS(g-h-1)= 2.311E-05  nbox= 10
     iter. #   612  RMS(g-h-1)= 2.306E-05  nbox= 11
     iter. #   613  RMS(g-h-1)= 2.300E-05  nbox= 12
     iter. #   614  RMS(g-h-1)= 2.296E-05  nbox= 13
     iter. #   615  RMS(g-h-1)= 2.293E-05  nbox= 14
     iter. #   616  RMS(g-h-1)= 2.288E-05  nbox= 15
     iter. #   617  RMS(g-h-1)= 2.283E-05  nbox= 16
     iter. #   618  RMS(g-h-1)= 2.277E-05  nbox= 17
     iter. #   619  RMS(g-h-1)= 2.275E-05  nbox=  2
     iter. #   620  RMS(g-h-1)= 2.270E-05  nbox=  3
     iter. #   621  RMS(g-h-1)= 2.264E-05  nbox=  4
     iter. #   622  RMS(g-h-1)= 2.258E-05  nbox=  5
     iter. #   623  RMS(g-h-1)= 2.251E-05  nbox=  6
     iter. #   624  RMS(g-h-1)= 2.246E-05  nbox=  7
     iter. #   625  RMS(g-h-1)= 2.242E-05  nbox=  8
     iter. #   626  RMS(g-h-1)= 2.238E-05  nbox=  9
     iter. #   627  RMS(g-h-1)= 2.232E-05  nbox= 10
     iter. #   628  RMS(g-h-1)= 2.227E-05  nbox= 11
     iter. #   629  RMS(g-h-1)= 2.221E-05  nbox= 12
     iter. #   630  RMS(g-h-1)= 2.214E-05  nbox= 13
     iter. #   631  RMS(g-h-1)= 2.207E-05  nbox= 14
     iter. #   632  RMS(g-h-1)= 2.200E-05  nbox= 15
     iter. #   633  RMS(g-h-1)= 2.196E-05  nbox= 16
     iter. #   634  RMS(g-h-1)= 2.191E-05  nbox= 17
     iter. #   635  RMS(g-h-1)= 2.189E-05  nbox=  2
     iter. #   636  RMS(g-h-1)= 2.182E-05  nbox=  3
     iter. #   637  RMS(g-h-1)= 2.175E-05  nbox=  4
     iter. #   638  RMS(g-h-1)= 2.171E-05  nbox=  5
     iter. #   639  RMS(g-h-1)= 2.164E-05  nbox=  6
     iter. #   640  RMS(g-h-1)= 2.162E-05  nbox=  7
     iter. #   641  RMS(g-h-1)= 2.155E-05  nbox=  8
     iter. #   642  RMS(g-h-1)= 2.150E-05  nbox=  9
     iter. #   643  RMS(g-h-1)= 2.142E-05  nbox= 10
     iter. #   644  RMS(g-h-1)= 2.136E-05  nbox= 11
     iter. #   645  RMS(g-h-1)= 2.129E-05  nbox= 12
     iter. #   646  RMS(g-h-1)= 2.126E-05  nbox= 13
     iter. #   647  RMS(g-h-1)= 2.120E-05  nbox= 14
     iter. #   648  RMS(g-h-1)= 2.114E-05  nbox= 15
     iter. #   649  RMS(g-h-1)= 2.108E-05  nbox= 16
     iter. #   650  RMS(g-h-1)= 2.102E-05  nbox= 17
     iter. #   651  RMS(g-h-1)= 2.101E-05  nbox=  2
     iter. #   652  RMS(g-h-1)= 2.095E-05  nbox=  3
     iter. #   653  RMS(g-h-1)= 2.090E-05  nbox=  4
     iter. #   654  RMS(g-h-1)= 2.085E-05  nbox=  5
     iter. #   655  RMS(g-h-1)= 2.080E-05  nbox=  6
     iter. #   656  RMS(g-h-1)= 2.077E-05  nbox=  7
     iter. #   657  RMS(g-h-1)= 2.073E-05  nbox=  8
     iter. #   658  RMS(g-h-1)= 2.069E-05  nbox=  9
     iter. #   659  RMS(g-h-1)= 2.065E-05  nbox= 10
     iter. #   660  RMS(g-h-1)= 2.062E-05  nbox= 11
     iter. #   661  RMS(g-h-1)= 2.058E-05  nbox= 12
     iter. #   662  RMS(g-h-1)= 2.054E-05  nbox= 13
     iter. #   663  RMS(g-h-1)= 2.050E-05  nbox= 14
     iter. #   664  RMS(g-h-1)= 2.046E-05  nbox= 15
     iter. #   665  RMS(g-h-1)= 2.042E-05  nbox= 16
     iter. #   666  RMS(g-h-1)= 2.037E-05  nbox= 17
     iter. #   667  RMS(g-h-1)= 2.036E-05  nbox=  2
     iter. #   668  RMS(g-h-1)= 2.030E-05  nbox=  3
     iter. #   669  RMS(g-h-1)= 2.025E-05  nbox=  4
     iter. #   670  RMS(g-h-1)= 2.019E-05  nbox=  5
     iter. #   671  RMS(g-h-1)= 2.014E-05  nbox=  6
     iter. #   672  RMS(g-h-1)= 2.010E-05  nbox=  7
     iter. #   673  RMS(g-h-1)= 2.007E-05  nbox=  8
     iter. #   674  RMS(g-h-1)= 2.003E-05  nbox=  9
     iter. #   675  RMS(g-h-1)= 1.998E-05  nbox= 10
     iter. #   676  RMS(g-h-1)= 1.993E-05  nbox= 11
     iter. #   677  RMS(g-h-1)= 1.988E-05  nbox= 12
     iter. #   678  RMS(g-h-1)= 1.983E-05  nbox= 13
     iter. #   679  RMS(g-h-1)= 1.977E-05  nbox= 14
     iter. #   680  RMS(g-h-1)= 1.972E-05  nbox= 15
     iter. #   681  RMS(g-h-1)= 1.968E-05  nbox= 16
     iter. #   682  RMS(g-h-1)= 1.963E-05  nbox= 17
     iter. #   683  RMS(g-h-1)= 1.961E-05  nbox=  2
     iter. #   684  RMS(g-h-1)= 1.954E-05  nbox=  3
     iter. #   685  RMS(g-h-1)= 1.948E-05  nbox=  4
     iter. #   686  RMS(g-h-1)= 1.942E-05  nbox=  5
     iter. #   687  RMS(g-h-1)= 1.936E-05  nbox=  6
     iter. #   688  RMS(g-h-1)= 1.931E-05  nbox=  7
     iter. #   689  RMS(g-h-1)= 1.926E-05  nbox=  8
     iter. #   690  RMS(g-h-1)= 1.921E-05  nbox=  9
     iter. #   691  RMS(g-h-1)= 1.913E-05  nbox= 10
     iter. #   692  RMS(g-h-1)= 1.907E-05  nbox= 11
     iter. #   693  RMS(g-h-1)= 1.899E-05  nbox= 12
     iter. #   694  RMS(g-h-1)= 1.891E-05  nbox= 13
     iter. #   695  RMS(g-h-1)= 1.884E-05  nbox= 14
     iter. #   696  RMS(g-h-1)= 1.882E-05  nbox= 15
     iter. #   697  RMS(g-h-1)= 1.871E-05  nbox= 16
     iter. #   698  RMS(g-h-1)= 1.863E-05  nbox= 17
     iter. #   699  RMS(g-h-1)= 1.862E-05  nbox=  2
     iter. #   700  RMS(g-h-1)= 1.852E-05  nbox=  3
     iter. #   701  RMS(g-h-1)= 1.844E-05  nbox=  4
     iter. #   702  RMS(g-h-1)= 1.838E-05  nbox=  5
     iter. #   703  RMS(g-h-1)= 1.831E-05  nbox=  6
     iter. #   704  RMS(g-h-1)= 1.825E-05  nbox=  7
     iter. #   705  RMS(g-h-1)= 1.818E-05  nbox=  8
     iter. #   706  RMS(g-h-1)= 1.808E-05  nbox=  9
     iter. #   707  RMS(g-h-1)= 1.801E-05  nbox= 10
     iter. #   708  RMS(g-h-1)= 1.789E-05  nbox= 11
     iter. #   709  RMS(g-h-1)= 1.789E-05  nbox= 12
     iter. #   710  RMS(g-h-1)= 1.775E-05  nbox= 13
     iter. #   711  RMS(g-h-1)= 1.764E-05  nbox= 14
     iter. #   712  RMS(g-h-1)= 1.754E-05  nbox= 15
     iter. #   713  RMS(g-h-1)= 1.745E-05  nbox= 16
     iter. #   714  RMS(g-h-1)= 1.737E-05  nbox= 17
     iter. #   715  RMS(g-h-1)= 1.733E-05  nbox=  2
     iter. #   716  RMS(g-h-1)= 1.723E-05  nbox=  3
     iter. #   717  RMS(g-h-1)= 1.714E-05  nbox=  4
     iter. #   718  RMS(g-h-1)= 1.706E-05  nbox=  5
     iter. #   719  RMS(g-h-1)= 1.695E-05  nbox=  6
     iter. #   720  RMS(g-h-1)= 1.690E-05  nbox=  7
     iter. #   721  RMS(g-h-1)= 1.677E-05  nbox=  8
     iter. #   722  RMS(g-h-1)= 1.665E-05  nbox=  9
     iter. #   723  RMS(g-h-1)= 1.653E-05  nbox= 10
     iter. #   724  RMS(g-h-1)= 1.641E-05  nbox= 11
     iter. #   725  RMS(g-h-1)= 1.629E-05  nbox= 12
     iter. #   726  RMS(g-h-1)= 1.622E-05  nbox= 13
     iter. #   727  RMS(g-h-1)= 1.610E-05  nbox= 14
     iter. #   728  RMS(g-h-1)= 1.598E-05  nbox= 15
     iter. #   729  RMS(g-h-1)= 1.583E-05  nbox= 16
     iter. #   730  RMS(g-h-1)= 1.570E-05  nbox= 17
     iter. #   731  RMS(g-h-1)= 1.567E-05  nbox=  2
     iter. #   732  RMS(g-h-1)= 1.550E-05  nbox=  3
     iter. #   733  RMS(g-h-1)= 1.536E-05  nbox=  4
     iter. #   734  RMS(g-h-1)= 1.522E-05  nbox=  5
     iter. #   735  RMS(g-h-1)= 1.515E-05  nbox=  6
     iter. #   736  RMS(g-h-1)= 1.501E-05  nbox=  7
     iter. #   737  RMS(g-h-1)= 1.485E-05  nbox=  8
     iter. #   738  RMS(g-h-1)= 1.470E-05  nbox=  9
     iter. #   739  RMS(g-h-1)= 1.454E-05  nbox= 10
     iter. #   740  RMS(g-h-1)= 1.437E-05  nbox= 11
     iter. #   741  RMS(g-h-1)= 1.419E-05  nbox= 12
     iter. #   742  RMS(g-h-1)= 1.416E-05  nbox= 13
     iter. #   743  RMS(g-h-1)= 1.394E-05  nbox= 14
     iter. #   744  RMS(g-h-1)= 1.378E-05  nbox= 15
     iter. #   745  RMS(g-h-1)= 1.361E-05  nbox= 16
     iter. #   746  RMS(g-h-1)= 1.346E-05  nbox= 17
     iter. #   747  RMS(g-h-1)= 1.344E-05  nbox=  2
     iter. #   748  RMS(g-h-1)= 1.329E-05  nbox=  3
     iter. #   749  RMS(g-h-1)= 1.318E-05  nbox=  4
     iter. #   750  RMS(g-h-1)= 1.309E-05  nbox=  5
     iter. #   751  RMS(g-h-1)= 1.302E-05  nbox=  6
     iter. #   752  RMS(g-h-1)= 1.293E-05  nbox=  7
     iter. #   753  RMS(g-h-1)= 1.284E-05  nbox=  8
     iter. #   754  RMS(g-h-1)= 1.274E-05  nbox=  9
     iter. #   755  RMS(g-h-1)= 1.265E-05  nbox= 10
     iter. #   756  RMS(g-h-1)= 1.255E-05  nbox= 11
     iter. #   757  RMS(g-h-1)= 1.244E-05  nbox= 12
     iter. #   758  RMS(g-h-1)= 1.234E-05  nbox= 13
     iter. #   759  RMS(g-h-1)= 1.229E-05  nbox= 14
     iter. #   760  RMS(g-h-1)= 1.218E-05  nbox= 15
     iter. #   761  RMS(g-h-1)= 1.207E-05  nbox= 16
     iter. #   762  RMS(g-h-1)= 1.197E-05  nbox= 17
     iter. #   763  RMS(g-h-1)= 1.195E-05  nbox=  2
     iter. #   764  RMS(g-h-1)= 1.183E-05  nbox=  3
     iter. #   765  RMS(g-h-1)= 1.173E-05  nbox=  4
     iter. #   766  RMS(g-h-1)= 1.164E-05  nbox=  5
     iter. #   767  RMS(g-h-1)= 1.158E-05  nbox=  6
     iter. #   768  RMS(g-h-1)= 1.152E-05  nbox=  7
     iter. #   769  RMS(g-h-1)= 1.142E-05  nbox=  8
     iter. #   770  RMS(g-h-1)= 1.133E-05  nbox=  9
     iter. #   771  RMS(g-h-1)= 1.124E-05  nbox= 10
     iter. #   772  RMS(g-h-1)= 1.115E-05  nbox= 11
     iter. #   773  RMS(g-h-1)= 1.105E-05  nbox= 12
     iter. #   774  RMS(g-h-1)= 1.096E-05  nbox= 13
     iter. #   775  RMS(g-h-1)= 1.087E-05  nbox= 14
     iter. #   776  RMS(g-h-1)= 1.080E-05  nbox= 15
     iter. #   777  RMS(g-h-1)= 1.069E-05  nbox= 16
     iter. #   778  RMS(g-h-1)= 1.058E-05  nbox= 17
     iter. #   779  RMS(g-h-1)= 1.055E-05  nbox=  2
     iter. #   780  RMS(g-h-1)= 1.040E-05  nbox=  3
     iter. #   781  RMS(g-h-1)= 1.028E-05  nbox=  4
     iter. #   782  RMS(g-h-1)= 1.016E-05  nbox=  5
     iter. #   783  RMS(g-h-1)= 1.005E-05  nbox=  6
     iter. #   784  RMS(g-h-1)= 9.983E-06  nbox=  7
     iter. #   785  RMS(g-h-1)= 9.859E-06  nbox=  8
     iter. #   786  RMS(g-h-1)= 9.760E-06  nbox=  9
     iter. #   787  RMS(g-h-1)= 9.659E-06  nbox= 10
     iter. #   788  RMS(g-h-1)= 9.566E-06  nbox= 11
     iter. #   789  RMS(g-h-1)= 9.551E-06  nbox= 12
     iter. #   790  RMS(g-h-1)= 9.421E-06  nbox= 13
     iter. #   791  RMS(g-h-1)= 9.407E-06  nbox= 14
     iter. #   792  RMS(g-h-1)= 9.316E-06  nbox= 15
     iter. #   793  RMS(g-h-1)= 9.251E-06  nbox= 16
     iter. #   794  RMS(g-h-1)= 9.181E-06  nbox= 17
     iter. #   795  RMS(g-h-1)= 9.178E-06  nbox=  2
     iter. #   796  RMS(g-h-1)= 9.096E-06  nbox=  3
     iter. #   797  RMS(g-h-1)= 9.035E-06  nbox=  4
     iter. #   798  RMS(g-h-1)= 8.982E-06  nbox=  5
     iter. #   799  RMS(g-h-1)= 8.920E-06  nbox=  6
     iter. #   800  RMS(g-h-1)= 8.909E-06  nbox=  7
     iter. #   801  RMS(g-h-1)= 8.843E-06  nbox=  8
     iter. #   802  RMS(g-h-1)= 8.793E-06  nbox=  9
     iter. #   803  RMS(g-h-1)= 8.742E-06  nbox= 10
     iter. #   804  RMS(g-h-1)= 8.702E-06  nbox= 11
     iter. #   805  RMS(g-h-1)= 8.651E-06  nbox= 12
     iter. #   806  RMS(g-h-1)= 8.709E-06  nbox= 13
     iter. #   807  RMS(g-h-1)= 8.561E-06  nbox= 14
     iter. #   808  RMS(g-h-1)= 8.556E-06  nbox= 15
     iter. #   809  RMS(g-h-1)= 8.504E-06  nbox= 16
     iter. #   810  RMS(g-h-1)= 8.463E-06  nbox= 17
     iter. #   811  RMS(g-h-1)= 8.453E-06  nbox=  2
     iter. #   812  RMS(g-h-1)= 8.410E-06  nbox=  3
     iter. #   813  RMS(g-h-1)= 8.373E-06  nbox=  4
     iter. #   814  RMS(g-h-1)= 8.340E-06  nbox=  5
     iter. #   815  RMS(g-h-1)= 8.301E-06  nbox=  6
     iter. #   816  RMS(g-h-1)= 8.287E-06  nbox=  7
     iter. #   817  RMS(g-h-1)= 8.257E-06  nbox=  8
     iter. #   818  RMS(g-h-1)= 8.228E-06  nbox=  9
     iter. #   819  RMS(g-h-1)= 8.198E-06  nbox= 10
     iter. #   820  RMS(g-h-1)= 8.165E-06  nbox= 11
     iter. #   821  RMS(g-h-1)= 8.131E-06  nbox= 12
     iter. #   822  RMS(g-h-1)= 8.101E-06  nbox= 13
     iter. #   823  RMS(g-h-1)= 8.072E-06  nbox= 14
     iter. #   824  RMS(g-h-1)= 8.058E-06  nbox= 15
     iter. #   825  RMS(g-h-1)= 8.036E-06  nbox= 16
     iter. #   826  RMS(g-h-1)= 8.011E-06  nbox= 17
     iter. #   827  RMS(g-h-1)= 8.006E-06  nbox=  2
     iter. #   828  RMS(g-h-1)= 7.977E-06  nbox=  3
     iter. #   829  RMS(g-h-1)= 7.957E-06  nbox=  4
     iter. #   830  RMS(g-h-1)= 7.935E-06  nbox=  5
     iter. #   831  RMS(g-h-1)= 7.914E-06  nbox=  6
     iter. #   832  RMS(g-h-1)= 7.903E-06  nbox=  7
     iter. #   833  RMS(g-h-1)= 7.888E-06  nbox=  8
     iter. #   834  RMS(g-h-1)= 7.871E-06  nbox=  9
     iter. #   835  RMS(g-h-1)= 7.854E-06  nbox= 10
     iter. #   836  RMS(g-h-1)= 7.839E-06  nbox= 11
     iter. #   837  RMS(g-h-1)= 7.822E-06  nbox= 12
     iter. #   838  RMS(g-h-1)= 7.808E-06  nbox= 13
     iter. #   839  RMS(g-h-1)= 7.793E-06  nbox= 14
     iter. #   840  RMS(g-h-1)= 7.780E-06  nbox= 15
     iter. #   841  RMS(g-h-1)= 7.769E-06  nbox= 16
     iter. #   842  RMS(g-h-1)= 7.762E-06  nbox= 17
     iter. #   843  RMS(g-h-1)= 7.758E-06  nbox=  2
     iter. #   844  RMS(g-h-1)= 7.744E-06  nbox=  3
     iter. #   845  RMS(g-h-1)= 7.731E-06  nbox=  4
     iter. #   846  RMS(g-h-1)= 7.717E-06  nbox=  5
     iter. #   847  RMS(g-h-1)= 7.704E-06  nbox=  6
     iter. #   848  RMS(g-h-1)= 7.689E-06  nbox=  7
     iter. #   849  RMS(g-h-1)= 7.678E-06  nbox=  8
     iter. #   850  RMS(g-h-1)= 7.669E-06  nbox=  9
     iter. #   851  RMS(g-h-1)= 7.658E-06  nbox= 10
     iter. #   852  RMS(g-h-1)= 7.645E-06  nbox= 11
     iter. #   853  RMS(g-h-1)= 7.632E-06  nbox= 12
     iter. #   854  RMS(g-h-1)= 7.618E-06  nbox= 13
     iter. #   855  RMS(g-h-1)= 7.605E-06  nbox= 14
     iter. #   856  RMS(g-h-1)= 7.589E-06  nbox= 15
     iter. #   857  RMS(g-h-1)= 7.576E-06  nbox= 16
     iter. #   858  RMS(g-h-1)= 7.567E-06  nbox= 17
     iter. #   859  RMS(g-h-1)= 7.561E-06  nbox=  2
     iter. #   860  RMS(g-h-1)= 7.551E-06  nbox=  3
     iter. #   861  RMS(g-h-1)= 7.537E-06  nbox=  4
     iter. #   862  RMS(g-h-1)= 7.521E-06  nbox=  5
     iter. #   863  RMS(g-h-1)= 7.504E-06  nbox=  6
     iter. #   864  RMS(g-h-1)= 7.487E-06  nbox=  7
     iter. #   865  RMS(g-h-1)= 7.475E-06  nbox=  8
     iter. #   866  RMS(g-h-1)= 7.465E-06  nbox=  9
     iter. #   867  RMS(g-h-1)= 7.449E-06  nbox= 10
     iter. #   868  RMS(g-h-1)= 7.434E-06  nbox= 11
     iter. #   869  RMS(g-h-1)= 7.417E-06  nbox= 12
     iter. #   870  RMS(g-h-1)= 7.401E-06  nbox= 13
     iter. #   871  RMS(g-h-1)= 7.384E-06  nbox= 14
     iter. #   872  RMS(g-h-1)= 7.367E-06  nbox= 15
     iter. #   873  RMS(g-h-1)= 7.350E-06  nbox= 16
     iter. #   874  RMS(g-h-1)= 7.338E-06  nbox= 17
     iter. #   875  RMS(g-h-1)= 7.330E-06  nbox=  2
     iter. #   876  RMS(g-h-1)= 7.311E-06  nbox=  3
     iter. #   877  RMS(g-h-1)= 7.288E-06  nbox=  4
     iter. #   878  RMS(g-h-1)= 7.264E-06  nbox=  5
     iter. #   879  RMS(g-h-1)= 7.236E-06  nbox=  6
     iter. #   880  RMS(g-h-1)= 7.206E-06  nbox=  7
     iter. #   881  RMS(g-h-1)= 7.189E-06  nbox=  8
     iter. #   882  RMS(g-h-1)= 7.167E-06  nbox=  9
     iter. #   883  RMS(g-h-1)= 7.138E-06  nbox= 10
     iter. #   884  RMS(g-h-1)= 7.108E-06  nbox= 11
     iter. #   885  RMS(g-h-1)= 7.078E-06  nbox= 12
     iter. #   886  RMS(g-h-1)= 7.049E-06  nbox= 13
     iter. #   887  RMS(g-h-1)= 7.020E-06  nbox= 14
     iter. #   888  RMS(g-h-1)= 6.987E-06  nbox= 15
     iter. #   889  RMS(g-h-1)= 6.994E-06  nbox= 16
     iter. #   890  RMS(g-h-1)= 6.945E-06  nbox= 17
     iter. #   891  RMS(g-h-1)= 6.941E-06  nbox=  2
     iter. #   892  RMS(g-h-1)= 6.902E-06  nbox=  3
     iter. #   893  RMS(g-h-1)= 6.871E-06  nbox=  4
     iter. #   894  RMS(g-h-1)= 6.844E-06  nbox=  5
     iter. #   895  RMS(g-h-1)= 6.826E-06  nbox=  6
     iter. #   896  RMS(g-h-1)= 6.809E-06  nbox=  7
     iter. #   897  RMS(g-h-1)= 6.783E-06  nbox=  8
     iter. #   898  RMS(g-h-1)= 6.764E-06  nbox=  9
     iter. #   899  RMS(g-h-1)= 6.743E-06  nbox= 10
     iter. #   900  RMS(g-h-1)= 6.723E-06  nbox= 11
     iter. #   901  RMS(g-h-1)= 6.753E-06  nbox= 12
     iter. #   902  RMS(g-h-1)= 6.693E-06  nbox= 13
     iter. #   903  RMS(g-h-1)= 6.689E-06  nbox= 14
     iter. #   904  RMS(g-h-1)= 6.664E-06  nbox= 15
     iter. #   905  RMS(g-h-1)= 6.641E-06  nbox= 16
     iter. #   906  RMS(g-h-1)= 6.621E-06  nbox= 17
     iter. #   907  RMS(g-h-1)= 6.612E-06  nbox=  2
     iter. #   908  RMS(g-h-1)= 6.590E-06  nbox=  3
     iter. #   909  RMS(g-h-1)= 6.574E-06  nbox=  4
     iter. #   910  RMS(g-h-1)= 6.550E-06  nbox=  5
[...]
     atom   19 type  1   force =    -0.00000532   -0.04942389   61.63596325
     atom   20 type  1   force =    -0.21043337   -0.12151746   65.56397362
     atom   21 type  1   force =     0.21043252   -0.12154023   65.56394533
     atom   22 type  1   force =     0.01551198   -0.00893497   62.69814337
     atom   23 type  1   force =    -0.00001653    0.24300195   65.56395172
     atom   24 type  1   force =    -0.01549903   -0.00894347   62.69818255
     atom   25 type  1   force =     0.04276359    0.02471210   61.63590699
     atom   26 type  1   force =    -0.04278308    0.02471424   61.63596918
     atom   27 type  1   force =     0.00001643    0.01792428   62.69815912
     atom   28 type  1   force =    -0.00000238   -0.00001333  203.68841785
     atom   29 type  1   force =    -0.59626324   -0.75355715  202.93223981
     atom   30 type  1   force =     0.59626603   -0.75356751  202.93219926
     atom   31 type  1   force =    -0.95071993   -0.13961524  202.93219314
     atom   32 type  1   force =     0.00001058   -0.00000378  203.56254134
     atom   33 type  1   force =     0.95072713   -0.13962495  202.93222261
     atom   34 type  1   force =    -0.35446798    0.89318079  202.93218500
     atom   35 type  1   force =     0.35445415    0.89318174  202.93224054
     atom   36 type  1   force =     0.00001784    0.00002741  204.43257108
     atom   37 type  2   force =     0.00002396    0.00001455   93.27829511
     atom   38 type  3   force =    -0.00003678   -0.00002409  164.32343805
     The local contribution  to forces
     atom    1 type  1   force =     0.00000328   -0.00003440  217.60713350
     atom    2 type  1   force =     0.02316425   -0.02515557  217.76107399
     atom    3 type  1   force =    -0.02316939   -0.02515396  217.76106972
     atom    4 type  1   force =    -0.01017267    0.03262380  217.76109046
     atom    5 type  1   force =    -0.00000123    0.00000202  217.72428768
     atom    6 type  1   force =     0.01017247    0.03262759  217.76109546
     atom    7 type  1   force =    -0.03333758   -0.00747541  217.76108010
     atom    8 type  1   force =     0.03333968   -0.00747226  217.76109110
     atom    9 type  1   force =    -0.00000432    0.00002846  217.84869354
     atom   10 type  1   force =     0.02250655    0.01300956   77.50408787
     atom   11 type  1   force =    -0.00000748   -0.16357618   77.20036985
     atom   12 type  1   force =    -0.02249804    0.01302950   77.50409544
     atom   13 type  1   force =    -0.14167923    0.08180153   77.20038032
     atom   14 type  1   force =     0.14169175    0.08181940   77.20036979
     atom   15 type  1   force =    -0.00001260    0.09684269   77.81440158
     atom   16 type  1   force =     0.00002329   -0.02601802   77.50405429
     atom   17 type  1   force =     0.08385169   -0.04845578   77.81434102
     atom   18 type  1   force =    -0.08387379   -0.04845194   77.81435336
     atom   19 type  1   force =     0.00000536    0.04466151  -61.66059276
     atom   20 type  1   force =     0.22382308    0.12924791  -65.56689303
     atom   21 type  1   force =    -0.22382236    0.12927065  -65.56686487
     atom   22 type  1   force =    -0.02342787    0.01350530  -62.72670253
     atom   23 type  1   force =     0.00001640   -0.25846302  -65.56687120
     atom   24 type  1   force =     0.02341499    0.01351384  -62.72674187
     atom   25 type  1   force =    -0.03863937   -0.02233102  -61.66053643
     atom   26 type  1   force =     0.03865881   -0.02233304  -61.66059876
     atom   27 type  1   force =    -0.00001647   -0.02706477  -62.72671838
     atom   28 type  1   force =     0.00000206    0.00001318 -203.71953113
     atom   29 type  1   force =     0.57762179    0.72286357 -203.01303827
     atom   30 type  1   force =    -0.57762426    0.72287389 -203.01299689
     atom   31 type  1   force =     0.91481799    0.13881816 -203.01299122
     atom   32 type  1   force =    -0.00001059    0.00000394 -203.59055685
     atom   33 type  1   force =    -0.91482538    0.13882746 -203.01302101
     atom   34 type  1   force =     0.33720744   -0.86168993 -203.01298233
     atom   35 type  1   force =    -0.33719390   -0.86169119 -203.01303893
     atom   36 type  1   force =    -0.00001747   -0.00002722 -204.46468236
     atom   37 type  2   force =    -0.00002081   -0.00001238  -94.15876718
     atom   38 type  3   force =     0.00002726    0.00001797 -161.57001921
     The core correction contribution to forces
     atom    1 type  1   force =    -0.00000001   -0.00000009    0.01936608
     atom    2 type  1   force =    -0.00022452    0.00004236    0.01940587
     atom    3 type  1   force =     0.00022450    0.00004236    0.01940586
     atom    4 type  1   force =    -0.00007551   -0.00021566    0.01940590
     atom    5 type  1   force =    -0.00000001   -0.00000001    0.01895047
     atom    6 type  1   force =     0.00007550   -0.00021566    0.01940591
     atom    7 type  1   force =     0.00014900    0.00017328    0.01940588
     atom    8 type  1   force =    -0.00014900    0.00017329    0.01940589
     atom    9 type  1   force =     0.00000000    0.00000006    0.01978435
     atom   10 type  1   force =     0.00024587    0.00014200    0.00010128
     atom   11 type  1   force =    -0.00000001   -0.00063793   -0.00036629
     atom   12 type  1   force =    -0.00024587    0.00014204    0.00010127
     atom   13 type  1   force =    -0.00055252    0.00031899   -0.00036629
     atom   14 type  1   force =     0.00055253    0.00031902   -0.00036627
     atom   15 type  1   force =    -0.00000002    0.00028224    0.00066530
     atom   16 type  1   force =     0.00000005   -0.00028397    0.00010129
     atom   17 type  1   force =     0.00024442   -0.00014120    0.00066531
     atom   18 type  1   force =    -0.00024446   -0.00014119    0.00066531
     atom   19 type  1   force =     0.00000002   -0.00034860   -0.00017912
     atom   20 type  1   force =     0.00157570    0.00090975    0.00096905
     atom   21 type  1   force =    -0.00157570    0.00090980    0.00096908
     atom   22 type  1   force =     0.00008498   -0.00004908    0.00047945
     atom   23 type  1   force =     0.00000003   -0.00181949    0.00096908
     atom   24 type  1   force =    -0.00008499   -0.00004907    0.00047947
     atom   25 type  1   force =     0.00030195    0.00017430   -0.00017917
     atom   26 type  1   force =    -0.00030191    0.00017431   -0.00017916
     atom   27 type  1   force =    -0.00000002    0.00009811    0.00047944
     atom   28 type  1   force =    -0.00000002    0.00000002   -0.01963569
     atom   29 type  1   force =    -0.00087993   -0.00169526   -0.02007973
     atom   30 type  1   force =     0.00087993   -0.00169522   -0.02007970
     atom   31 type  1   force =    -0.00190812    0.00008562   -0.02007975
     atom   32 type  1   force =    -0.00000010   -0.00000005    0.02504592
     atom   33 type  1   force =     0.00190807    0.00008562   -0.02007975
     atom   34 type  1   force =    -0.00102816    0.00160963   -0.02007971
     atom   35 type  1   force =     0.00102818    0.00160961   -0.02007972
     atom   36 type  1   force =    -0.00000003   -0.00000004   -0.02027491
     atom   37 type  2   force =     0.00000009    0.00000006   -0.01714478
     atom   38 type  3   force =    -0.00000008   -0.00000005    0.02244590
     The Hubbard contrib.    to forces
     atom    1 type  1   force =     0.00000000    0.00000000    0.00000000
     atom    2 type  1   force =     0.00000000    0.00000000    0.00000000
     atom    3 type  1   force =     0.00000000    0.00000000    0.00000000
     atom    4 type  1   force =     0.00000000    0.00000000    0.00000000
     atom    5 type  1   force =     0.00000000    0.00000000    0.00000000
     atom    6 type  1   force =     0.00000000    0.00000000    0.00000000
     atom    7 type  1   force =     0.00000000    0.00000000    0.00000000
     atom    8 type  1   force =     0.00000000    0.00000000    0.00000000
     atom    9 type  1   force =     0.00000000    0.00000000    0.00000000
     atom   10 type  1   force =     0.00000000    0.00000000    0.00000000
     atom   11 type  1   force =     0.00000000    0.00000000    0.00000000
     atom   12 type  1   force =     0.00000000    0.00000000    0.00000000
     atom   13 type  1   force =     0.00000000    0.00000000    0.00000000
     atom   14 type  1   force =     0.00000000    0.00000000    0.00000000
     atom   15 type  1   force =     0.00000000    0.00000000    0.00000000
     atom   16 type  1   force =     0.00000000    0.00000000    0.00000000
     atom   17 type  1   force =     0.00000000    0.00000000    0.00000000
     atom   18 type  1   force =     0.00000000    0.00000000    0.00000000
     atom   19 type  1   force =     0.00000000    0.00000000    0.00000000
     atom   20 type  1   force =     0.00000000    0.00000000    0.00000000
     atom   21 type  1   force =     0.00000000    0.00000000    0.00000000
     atom   22 type  1   force =     0.00000000    0.00000000    0.00000000
     atom   23 type  1   force =     0.00000000    0.00000000    0.00000000
     atom   24 type  1   force =     0.00000000    0.00000000    0.00000000
     atom   25 type  1   force =     0.00000000    0.00000000    0.00000000
     atom   26 type  1   force =     0.00000000    0.00000000    0.00000000
     atom   27 type  1   force =     0.00000000    0.00000000    0.00000000
     atom   28 type  1   force =     0.00000000    0.00000000    0.00000000
     atom   29 type  1   force =     0.00000000    0.00000000    0.00000000
     atom   30 type  1   force =     0.00000000    0.00000000    0.00000000
     atom   31 type  1   force =     0.00000000    0.00000000    0.00000000
     atom   32 type  1   force =     0.00000000    0.00000000    0.00000000
     atom   33 type  1   force =     0.00000000    0.00000000    0.00000000
     atom   34 type  1   force =     0.00000000    0.00000000    0.00000000
     atom   35 type  1   force =     0.00000000    0.00000000    0.00000000
     atom   36 type  1   force =     0.00000000    0.00000000    0.00000000
     atom   37 type  2   force =     0.00000000    0.00000000    0.00000000
     atom   38 type  3   force =     0.00000000    0.00000000    0.00000000
     The SCF correction term to forces
     atom    1 type  1   force =     0.00000000    0.00000000    0.00000000
     atom    2 type  1   force =     0.00000000    0.00000000    0.00000000
     atom    3 type  1   force =     0.00000000    0.00000000    0.00000000
     atom    4 type  1   force =     0.00000000    0.00000000    0.00000000
     atom    5 type  1   force =     0.00000000    0.00000000    0.00000000
     atom    6 type  1   force =     0.00000000    0.00000000    0.00000000
     atom    7 type  1   force =     0.00000000    0.00000000    0.00000000
     atom    8 type  1   force =     0.00000000    0.00000000    0.00000000
     atom    9 type  1   force =     0.00000000    0.00000000    0.00000000
     atom   10 type  1   force =    -0.00000003    0.00000002    0.00000031
     atom   11 type  1   force =     0.00000003   -0.00000010    0.00000042
     atom   12 type  1   force =    -0.00000001   -0.00000007    0.00000029
     atom   13 type  1   force =    -0.00000010    0.00000007    0.00000043
     atom   14 type  1   force =     0.00000004    0.00000000    0.00000041
     atom   15 type  1   force =     0.00000006    0.00000020    0.00000038
     atom   16 type  1   force =    -0.00000009    0.00000003    0.00000031
     atom   17 type  1   force =     0.00000022   -0.00000007    0.00000040
     atom   18 type  1   force =    -0.00000014   -0.00000009    0.00000042
     atom   19 type  1   force =     0.00000000    0.00000015    0.00000026
     atom   20 type  1   force =     0.00000013    0.00000008    0.00000029
     atom   21 type  1   force =    -0.00000012    0.00000001    0.00000028
     atom   22 type  1   force =     0.00000005    0.00000004    0.00000021
     atom   23 type  1   force =    -0.00000006   -0.00000011    0.00000031
     atom   24 type  1   force =     0.00000001   -0.00000001    0.00000023
     atom   25 type  1   force =    -0.00000019   -0.00000011    0.00000025
     atom   26 type  1   force =     0.00000011   -0.00000007    0.00000028
     atom   27 type  1   force =     0.00000006    0.00000003    0.00000022
     atom   28 type  1   force =    -0.00000003   -0.00000003    0.00000047
     atom   29 type  1   force =     0.00000008    0.00000018    0.00000040
     atom   30 type  1   force =    -0.00000004    0.00000015    0.00000040
     atom   31 type  1   force =     0.00000022   -0.00000002    0.00000037
     atom   32 type  1   force =    -0.00000001    0.00000000   -0.00000020
     atom   33 type  1   force =    -0.00000020   -0.00000007    0.00000039
     atom   34 type  1   force =     0.00000012   -0.00000012    0.00000038
     atom   35 type  1   force =    -0.00000016   -0.00000012    0.00000041
     atom   36 type  1   force =     0.00000005    0.00000003    0.00000027
     atom   37 type  2   force =     0.00000000    0.00000000   -0.00000001
     atom   38 type  3   force =     0.00000001    0.00000000   -0.00000063

     3D-RISM Solvation contribution to forces:
     atom    1 type  1   force =     0.00000001    0.00000000    0.00000702
     atom    2 type  1   force =     0.00001185    0.00002350    0.00003121
     atom    3 type  1   force =    -0.00001184    0.00002352    0.00003121
     atom    4 type  1   force =     0.00002628   -0.00000149    0.00003121
     atom    5 type  1   force =     0.00000004    0.00000002    0.00008311
     atom    6 type  1   force =    -0.00002629   -0.00000147    0.00003129
     atom    7 type  1   force =     0.00001445   -0.00002202    0.00003121
     atom    8 type  1   force =    -0.00001442   -0.00002203    0.00003129
     atom    9 type  1   force =    -0.00000003   -0.00000002    0.00000192
     atom   10 type  1   force =     0.00014080    0.00008129    0.00004025
     atom   11 type  1   force =     0.00000003    0.00019917    0.00030743
     atom   12 type  1   force =    -0.00014074    0.00008137    0.00004026
     atom   13 type  1   force =     0.00017250   -0.00009957    0.00030742
     atom   14 type  1   force =    -0.00017238   -0.00009952    0.00030746
     atom   15 type  1   force =    -0.00000007   -0.00005356   -0.00004845
     atom   16 type  1   force =     0.00000010   -0.00016257    0.00004026
     atom   17 type  1   force =    -0.00004642    0.00002672   -0.00004845
     atom   18 type  1   force =     0.00004635    0.00002676   -0.00004848
     atom   19 type  1   force =     0.00000007    0.00027144   -0.00044292
     atom   20 type  1   force =     0.00102019    0.00058900    0.00203387
     atom   21 type  1   force =    -0.00102007    0.00058912    0.00203393
     atom   22 type  1   force =     0.00116971   -0.00067540   -0.00006233
     atom   23 type  1   force =     0.00000016   -0.00117798    0.00203391
     atom   24 type  1   force =    -0.00116972   -0.00067534   -0.00006209
     atom   25 type  1   force =    -0.00023489   -0.00013561   -0.00044313
     atom   26 type  1   force =     0.00023511   -0.00013565   -0.00044293
     atom   27 type  1   force =    -0.00000006    0.00135071   -0.00006232
     atom   28 type  1   force =     0.00000029    0.00000021   -0.01740681
     atom   29 type  1   force =     0.00527638    0.01024383    0.00341631
     atom   30 type  1   force =    -0.00527664    0.01024435    0.00341592
     atom   31 type  1   force =     0.01150956   -0.00055248    0.00341628
     atom   32 type  1   force =     0.00000044    0.00000021    0.00841971
     atom   33 type  1   force =    -0.01150999   -0.00055207    0.00341687
     atom   34 type  1   force =     0.00623352   -0.00969185    0.00341582
     atom   35 type  1   force =    -0.00623306   -0.00969192    0.00341680
     atom   36 type  1   force =    -0.00000048   -0.00000025   -0.01933587
     atom   37 type  2   force =     0.00000027    0.00000013   -0.02151423
     atom   38 type  3   force =     0.00000037    0.00000019   -0.08237200

     Total force =     0.000884     Total SCF correction =     0.000002

     Total 3D-RISM Solvation Force =     0.094265

     Writing output data file Cu-vib.save
 
     init_run     :    407.40s CPU    206.61s WALL (       1 calls)
     electrons    :   6854.21s CPU   3495.24s WALL (       1 calls)
     forces       :     26.80s CPU     13.32s WALL (       1 calls)

     Called by init_run:
     wfcinit      :     58.83s CPU     30.72s WALL (       1 calls)
     wfcinit:atom :      0.02s CPU      0.02s WALL (      34 calls)
     wfcinit:wfcr :     58.31s CPU     30.36s WALL (      34 calls)
     potinit      :    338.92s CPU    170.95s WALL (       1 calls)

     Called by electrons:
     c_bands      :   3829.35s CPU   1970.68s WALL (      33 calls)
     sum_band     :    527.07s CPU    271.57s WALL (      33 calls)
     v_of_rho     :     46.87s CPU     21.69s WALL (      33 calls)
     v_h          :      1.14s CPU      0.54s WALL (      66 calls)
     v_xc         :     47.64s CPU     22.01s WALL (      34 calls)
     newd         :      3.26s CPU      1.29s WALL (      33 calls)
     PAW_pot      :      5.11s CPU      2.74s WALL (      33 calls)
     mix_rho      :      1.87s CPU      0.57s WALL (      33 calls)

     Called by c_bands:
     init_us_2    :      2.69s CPU      1.49s WALL (    2312 calls)
     crmmdiagg    :   2439.61s CPU   1259.13s WALL (    1122 calls)
     wfcrot       :   1364.68s CPU    700.03s WALL (    1088 calls)
     gsorth       :     81.34s CPU     39.46s WALL (    1122 calls)

     Called by sum_band:
     sum_band:bec :      3.25s CPU      1.21s WALL (    1122 calls)
     addusdens    :      2.22s CPU      1.19s WALL (      33 calls)

     Called by *rmmdiagg:
     h_psi        :   3436.12s CPU   1751.10s WALL (    9653 calls)
     s_psi        :     51.27s CPU     26.47s WALL (    9653 calls)
     cdiaghg      :    126.60s CPU     78.65s WALL (    1088 calls)
     cdiaghg:chol :      2.85s CPU      2.82s WALL (    1088 calls)
     cdiaghg:inve :      2.81s CPU      1.79s WALL (    1088 calls)
     cdiaghg:para :      4.00s CPU      1.71s WALL (    2176 calls)

     Called by h_psi:
     h_psi:pot    :   3432.84s CPU   1749.74s WALL (    9653 calls)
     h_psi:calbec :    137.73s CPU     66.51s WALL (    9653 calls)
     vloc_psi     :   3242.49s CPU   1655.83s WALL (    9653 calls)
     add_vuspsi   :     52.41s CPU     27.23s WALL (    9653 calls)

     General routines
     calbec       :    177.73s CPU     85.37s WALL (   10911 calls)
     fft          :     37.32s CPU     15.73s WALL (    2339 calls)
     ffts         :      0.15s CPU      0.15s WALL (      66 calls)
     fftw         :   3649.94s CPU   1864.14s WALL ( 1929508 calls)
     fftc         :      0.21s CPU      0.15s WALL (      66 calls)
     interpolate  :      0.92s CPU      0.59s WALL (      66 calls)
 
     Parallel routines
     fft_scatter  :   2526.24s CPU   1400.64s WALL ( 2027088 calls)

     PAW routines
     PAW_pot      :      5.11s CPU      2.74s WALL (      33 calls)

     RISM routines
     1DRISM_pre   :     28.25s CPU     14.28s WALL (       1 calls)
     1DRISM_run   :      0.56s CPU      1.20s WALL (       1 calls)
     3DRISM_pre   :     10.66s CPU      6.36s WALL (       1 calls)
     3DRISM_run   :   2763.82s CPU   1388.77s WALL (      33 calls)
     3DRISM_for   :      6.01s CPU      2.89s WALL (       1 calls)
     3DRISM_vsol  :      0.92s CPU      0.21s WALL (      33 calls)
 
     PWSCF        :     2h 4m CPU        1h 3m WALL

 
   This run was terminated on:  15:49:30  10Feb2026            

=------------------------------------------------------------------------------=
   JOB DONE.
=------------------------------------------------------------------------------=
