
     Program PWSCF v.6.1 starts on 10Feb2026 at 21:17:43 

     This program is part of the open-source Quantum ESPRESSO suite
     for quantum simulation of materials; please cite
         "P. Giannozzi et al., J. Phys.:Condens. Matter 21 395502 (2009);
          URL http://www.quantum-espresso.org", 
     in publications or presentations arising from this work. More details at
     http://www.quantum-espresso.org/quote

     Parallel version (MPI & OpenMP), running on     480 processor cores
     Number of MPI processes:               240
     Threads/MPI process:                     2
     R & G space division:  proc/nbgrp/npool/nimage =     240
     Reading input from espresso.pwi

     Current dimensions of program PWSCF are:
     Max number of different atomic species (ntypx) = 10
     Max number of k-points (npk) =  40000
     Max angular momentum in pseudopotentials (lmaxx) =  3

     IMPORTANT: XC functional enforced from input :
     Exchange-correlation      = VDW-DF2 ( 1  4 13  0 2 0)
     Any further DFT definition will be discarded
     Please, verify this is what you really want

               file Cu.pbe-dn-kjpaw_psl.1.0.0.UPF: wavefunction(s)  4S 3D renormalized
               file C.pbe-n-kjpaw_psl.1.0.0.UPF: wavefunction(s)  2S 2P renormalized
               file O.pbe-n-kjpaw_psl.1.0.0.UPF: wavefunction(s)  2S 2P renormalized
     Message from routine iosys_1drism:
     default density from MOL file(H2O.tip5p.MOL) is used

     Subspace diagonalization in iterative solution of the eigenvalue problem:
     one sub-group per band group will be used
     ELPA distributed-memory algorithm (size of sub-group: 10* 10 procs)


     Molecule # 1 for H2O read from file:
     /work/gf93/f93007/QE/pseudo/H2O.tip5p.MOL
     Density:
         0.72794769E+02 cell^-1
         0.49533750E-02 bohr^-3
         0.55506881E+02 mol/L
         0.99997200E+00 g/cm^3
     Permittivity:
        78.355300
     Number of atoms:   5
     Atoms:
       #  atom      X (angs)      Y (angs)      Z (angs)      Q (e)         E (kcal/mol)  S (angs)
       1  O/h2o     0.00000000    0.00000000    0.00000000    0.00000000    0.16000000    3.12000000
       2  H/h2o     0.75695000    0.58588000    0.00000000    0.24100000    0.04600000    1.00000000
       3  H/h2o    -0.75695000    0.58588000    0.00000000    0.24100000    0.04600000    1.00000000
       4  L/h2o     0.00000000   -0.40415000    0.57154000   -0.24100000    0.04600000    1.80000000
       5  L/h2o     0.00000000   -0.40415000   -0.57154000   -0.24100000    0.04600000    1.80000000


     Molecule # 2 for K+ read from file:
     /work/gf93/f93007/QE/pseudo/K+.oplsaa.MOL
     Density:
         0.13114549E+01 cell^-1
         0.89238936E-04 bohr^-3
         0.10000000E+01 mol/L
         0.39098300E-01 g/cm^3
     Number of atoms:   1
     Atoms:
       #  atom      X (angs)      Y (angs)      Z (angs)      Q (e)         E (kcal/mol)  S (angs)
       1  K         0.00000000    0.00000000    0.00000000    1.00000000    0.00032800    4.93462800


     Molecule # 3 for OH- read from file:
     /work/gf93/f93007/QE/pseudo/OH-.oplsaa.MOL
     Density:
         0.13114549E+01 cell^-1
         0.89238936E-04 bohr^-3
         0.10000000E+01 mol/L
         0.17007340E-01 g/cm^3
     Number of atoms:   2
     Atoms:
       #  atom      X (angs)      Y (angs)      Z (angs)      Q (e)         E (kcal/mol)  S (angs)
       1  O/oh      0.00000000    0.00000000    0.00000000   -1.30000000    0.25000000    3.20000000
       2  H/oh      0.95300000    0.00000000    0.00000000    0.30000000    0.04600000    1.00000000


     Number of total sites:   8
     Index site -> solvent: 
       1  1  1  1  1  2  3  3
     Index site -> atom (in a solvent): 
       1  2  3  4  5  1  1  2


     Number of unique sites:   6
     Multiplicity of unique site: 
       1  2  2  1  1  1
     Index unique site -> site: 
       1:  1
       2:  2  3
       3:  4  5
       4:  6
       5:  7
       6:  8


     1D-RISM info
     ------------
     closure equation        =           KH
     temperature             =     300.0000  kelvin
     coulomb smearing radius =       2.0000  bohr
     number of solvent sites =            8
     nv * (nv + 1) / 2       =           36
     number of grids         =         8345
     maximum of R-space      =     999.8802  bohr
     maximum of G-space      =      26.2150  bohr^-1
     #R-grids in local       =           66
     #G-grids in local       =           66
     number of iterations    =       100000
     convergence threshold   =      1.0E-08
     Gaussian width of bonds =       0.2530  bohr
     size of MDIIS           =           20
     step of MDIIS           =       0.1000
     number of processes     =          128


     Radial FFT:
     number of radial grids   =         8345
     number of FFT grids      =        16689
     good number of FFT grids =           -1
     R-space grids:
       0.00000000E+00  0.11983223E+00  0.23966447E+00  0.35949670E+00  0.47932894E+00
       0.59916117E+00  0.71899341E+00  0.83882564E+00  0.95865788E+00  0.10784901E+01
       ..............  ..............  ..............  ..............  ..............
       0.99880168E+03  0.99892151E+03  0.99904134E+03  0.99916117E+03  0.99928101E+03
       0.99940084E+03  0.99952067E+03  0.99964050E+03  0.99976034E+03  0.99988017E+03
     G-space grids:
       0.00000000E+00  0.31417809E-02  0.62835618E-02  0.94253427E-02  0.12567124E-01
       0.15708904E-01  0.18850685E-01  0.21992466E-01  0.25134247E-01  0.28276028E-01
       ..............  ..............  ..............  ..............  ..............
       0.26186744E+02  0.26189886E+02  0.26193027E+02  0.26196169E+02  0.26199311E+02
       0.26202453E+02  0.26205594E+02  0.26208736E+02  0.26211878E+02  0.26215020E+02


     MPI for site:
     number of site groups     =          128
     #procs in a site group    =            1
     this proc in a site group =            0
     the root in a site group  =            0
     this site group           =            0
     inter-site group comm.    =           20
     intra-site group comm.    =            2
     total number of sites     =           36
     starting index of sites   =            1
     ending index of sites     =            1


     MPI for task:
     #procs in a task group    =          128
     this proc in a task group =            0
     the root in a task group  =            0
     task group comm.          =           20
     total number of vectors   =         8345
     starting index of vectors =            1
     ending index of vectors   =           66
     lengths of vectors        = 
        66   66   66   66   66   66   66   66   66   66
        66   66   66   66   66   66   66   66   66   66
        66   66   66   66   66   65   65   65   65   65
        65   65   65   65   65   65   65   65   65   65
        65   65   65   65   65   65   65   65   65   65
        65   65   65   65   65   65   65   65   65   65
        65   65   65   65   65   65   65   65   65   65
        65   65   65   65   65   65   65   65   65   65
        65   65   65   65   65   65   65   65   65   65
        65   65   65   65   65   65   65   65   65   65
        65   65   65   65   65   65   65   65   65   65
        65   65   65   65   65   65   65   65   65   65
        65   65   65   65   65   65   65   65
     displacement of vectors   = 
         0   66  132  198  264  330  396  462  528  594
       660  726  792  858  924  990 1056 1122 1188 1254
      1320 1386 1452 1518 1584 1650 1715 1780 1845 1910
      1975 2040 2105 2170 2235 2300 2365 2430 2495 2560
      2625 2690 2755 2820 2885 2950 3015 3080 3145 3210
      3275 3340 3405 3470 3535 3600 3665 3730 3795 3860
      3925 3990 4055 4120 4185 4250 4315 4380 4445 4510
      4575 4640 4705 4770 4835 4900 4965 5030 5095 5160
      5225 5290 5355 5420 5485 5550 5615 5680 5745 5810
      5875 5940 6005 6070 6135 6200 6265 6330 6395 6460
      6525 6590 6655 6720 6785 6850 6915 6980 7045 7110
      7175 7240 7305 7370 7435 7500 7565 7630 7695 7760
      7825 7890 7955 8020 8085 8150 8215 8280


     Correlation function is read from file


     1D-RISM Calculation

     iter. #     1  RMS(g-h-1)= 9.995E-09  nbox=  0  T=  300.00K

     End of 1D-RISM calculation


     convergence has been achieved in     1 iterations


     Chemical potential of solvation

     H2O        H2O        Closure      0.106068E+01 kcal/mol
                           GaussFluct  -0.737993E+01 kcal/mol

                K+         Closure     -0.288345E+00 kcal/mol
                           GaussFluct  -0.358438E+00 kcal/mol

                OH-        Closure     -0.764259E+00 kcal/mol
                           GaussFluct  -0.855991E+00 kcal/mol

                Total      Closure      0.808077E-02 kcal/mol
                           GaussFluct  -0.859435E+01 kcal/mol

     K+         H2O        Closure     -0.160051E+02 kcal/mol
                           GaussFluct  -0.198958E+02 kcal/mol

                K+         Closure      0.351561E+06 kcal/mol
                           GaussFluct   0.351561E+06 kcal/mol

                OH-        Closure     -0.351612E+06 kcal/mol
                           GaussFluct  -0.351612E+06 kcal/mol

                Total      Closure     -0.668098E+02 kcal/mol
                           GaussFluct  -0.707592E+02 kcal/mol

     OH-        H2O        Closure     -0.424217E+02 kcal/mol
                           GaussFluct  -0.475134E+02 kcal/mol

                K+         Closure     -0.351612E+06 kcal/mol
                           GaussFluct  -0.351612E+06 kcal/mol

                OH-        Closure      0.351561E+06 kcal/mol
                           GaussFluct   0.351561E+06 kcal/mol

                Total      Closure     -0.934347E+02 kcal/mol
                           GaussFluct  -0.986502E+02 kcal/mol

 
     Parallelization info
     --------------------
     sticks:   dense  smooth     PW     G-vecs:    dense   smooth      PW
     Min          40      16      4                16136     4064     568
     Max          41      17      5                16171     4100     615
     Sum        9661    3865   1057              3875677   980529  140539
 

     Title: 
     Cu-vib                                                                     


     bravais-lattice index     =            0
     lattice parameter (alat)  =      14.9832  a.u.
     unit-cell volume          =   14695.9939 (a.u.)^3
     number of atoms/cell      =           38
     number of atomic types    =            3
     number of electrons       =       406.00
     number of Kohn-Sham states=          244
     kinetic-energy cutoff     =      62.4738  Ry
     charge density cutoff     =     624.7385  Ry
     convergence threshold     =      7.3E-12
     mixing beta               =       0.3333
     number of iterations used =           12  plain     mixing
     Exchange-correlation      = VDW-DF2 ( 1  4 13  0 2 0)

     Effective Screening Medium Method
     =================================
     Boundary Conditions: Vacuum-Slab-Vacuum
     total charge in unit cell        =   0.0000
     grid points for fit at edges     =        4 
 

     celldm(1)=  14.983209  celldm(2)=   0.000000  celldm(3)=   0.000000
     celldm(4)=   0.000000  celldm(5)=   0.000000  celldm(6)=   0.000000

     crystal axes: (cart. coord. in units of alat)
               a(1) = (   1.000000   0.000000   0.000000 )  
               a(2) = (   0.500000   0.866025   0.000000 )  
               a(3) = (   0.000000   0.000000   5.044917 )  

     reciprocal axes: (cart. coord. in units 2 pi/alat)
               b(1) = (  1.000000 -0.577351  0.000000 )  
               b(2) = (  0.000000  1.154701  0.000000 )  
               b(3) = (  0.000000  0.000000  0.198219 )  


     PseudoPot. # 1 for Cu read from file:
     /work/gf93/f93007/QE/pseudo/Cu.pbe-dn-kjpaw_psl.1.0.0.UPF
     MD5 check sum: 67c40f9e1593dc2d139023e70404cc2a
     Pseudo is Projector augmented-wave + core cor, Zval = 11.0
     Generated using "atomic" code by A. Dal Corso  v.6.1 svn rev. 13369
     Shape of augmentation charge: PSQ
     Using radial grid of 1199 points,  6 beta functions with: 
                l(1) =   0
                l(2) =   0
                l(3) =   1
                l(4) =   1
                l(5) =   2
                l(6) =   2
     Q(r) pseudized with 0 coefficients 


     PseudoPot. # 2 for  C read from file:
     /work/gf93/f93007/QE/pseudo/C.pbe-n-kjpaw_psl.1.0.0.UPF
     MD5 check sum: 92a742b3ac0ce1af44b5aa3f9352ca21
     Pseudo is Projector augmented-wave + core cor, Zval =  4.0
     Generated using "atomic" code by A. Dal Corso  v.6.1 svn rev. 13369
     Shape of augmentation charge: PSQ
     Using radial grid of 1073 points,  4 beta functions with: 
                l(1) =   0
                l(2) =   0
                l(3) =   1
                l(4) =   1
     Q(r) pseudized with 0 coefficients 


     PseudoPot. # 3 for  O read from file:
     /work/gf93/f93007/QE/pseudo/O.pbe-n-kjpaw_psl.1.0.0.UPF
     MD5 check sum: c61d840054b6bba219e553541e327118
     Pseudo is Projector augmented-wave + core cor, Zval =  6.0
     Generated using "atomic" code by A. Dal Corso  v.6.1 svn rev. 13369
     Shape of augmentation charge: PSQ
     Using radial grid of 1095 points,  4 beta functions with: 
                l(1) =   0
                l(2) =   0
                l(3) =   1
                l(4) =   1
     Q(r) pseudized with 0 coefficients 


     vdW kernel table read from file vdW_kernel_table
     MD5 check sum: 6d69797d2e858e93e031fb7d16d30e50

     atomic species   valence    mass     pseudopotential
        Cu            11.00    63.54600     Cu( 1.00)
        C              4.00    12.01100      C( 1.00)
        O              6.00    15.99900      O( 1.00)

     No symmetry found


                                    s                        frac. trans.

      isym =  1     identity                                     

 cryst.   s( 1) = (     1          0          0      )
                  (     0          1          0      )
                  (     0          0          1      )

 cart.    s( 1) = (  1.0000000  0.0000000  0.0000000 )
                  (  0.0000000  1.0000000  0.0000000 )
                  (  0.0000000  0.0000000  1.0000000 )


   Cartesian axes

     site n.     atom                  positions (alat units)
         1           Cu  tau(   1) = (   0.0000000   0.0000000  -0.8248888  )
         2           Cu  tau(   2) = (   0.3333333   0.0000000  -0.8248888  )
         3           Cu  tau(   3) = (   0.6666667   0.0000000  -0.8248888  )
         4           Cu  tau(   4) = (   0.1666667   0.2886751  -0.8248888  )
         5           Cu  tau(   5) = (   0.5000000   0.2886751  -0.8248888  )
         6           Cu  tau(   6) = (   0.8333333   0.2886751  -0.8248888  )
         7           Cu  tau(   7) = (   0.3333333   0.5773503  -0.8248888  )
         8           Cu  tau(   8) = (   0.6666667   0.5773503  -0.8248888  )
         9           Cu  tau(   9) = (   1.0000000   0.5773503  -0.8248888  )
        10           Cu  tau(  10) = (   0.1679527   0.0969677  -0.5550278  )
        11           Cu  tau(  11) = (   0.5000001   0.0963555  -0.5546924  )
        12           Cu  tau(  12) = (   0.8320475   0.0969677  -0.5550278  )
        13           Cu  tau(  13) = (   0.3334463   0.3848350  -0.5546924  )
        14           Cu  tau(  14) = (   0.6665540   0.3848351  -0.5546924  )
        15           Cu  tau(  15) = (   1.0000000   0.3851225  -0.5554971  )
        16           Cu  tau(  16) = (   0.5000002   0.6720902  -0.5550277  )
        17           Cu  tau(  17) = (   0.8335259   0.6734639  -0.5554970  )
        18           Cu  tau(  18) = (   1.1664742   0.6734639  -0.5554970  )
        19           Cu  tau(  19) = (   0.0000002   0.1919045  -0.2895402  )
        20           Cu  tau(  20) = (   0.3359748   0.1939752  -0.2811846  )
        21           Cu  tau(  21) = (   0.6640256   0.1939752  -0.2811846  )
        22           Cu  tau(  22) = (   0.1667941   0.4810516  -0.2872685  )
        23           Cu  tau(  23) = (   0.5000002   0.4780753  -0.2811846  )
        24           Cu  tau(  24) = (   0.8332061   0.4810517  -0.2872684  )
        25           Cu  tau(  25) = (   0.3338062   0.7700731  -0.2895404  )
        26           Cu  tau(  26) = (   0.6661942   0.7700731  -0.2895403  )
        27           Cu  tau(  27) = (   1.0000001   0.7699472  -0.2872685  )
        28           Cu  tau(  28) = (   0.0000000   0.0000002  -0.0207473  )
        29           Cu  tau(  29) = (   0.3317716  -0.0034666  -0.0198287  )
        30           Cu  tau(  30) = (   0.6682285  -0.0034665  -0.0198288  )
        31           Cu  tau(  31) = (   0.1628835   0.2890560  -0.0198289  )
        32           Cu  tau(  32) = (   0.5000001   0.2886752   0.0000000  )
        33           Cu  tau(  33) = (   0.8371164   0.2890560  -0.0198289  )
        34           Cu  tau(  34) = (   0.3311120   0.5804359  -0.0198289  )
        35           Cu  tau(  35) = (   0.6688881   0.5804359  -0.0198288  )
        36           Cu  tau(  36) = (   1.0000000   0.5773501  -0.0191733  )
        37           C   tau(  37) = (   0.4999994   0.2886747   0.2397149  )
        38           O   tau(  38) = (   0.4999989   0.2886744   0.3860646  )

   Crystallographic axes

     site n.     atom                  positions (cryst. coord.)
         1           Cu  tau(   1) = (  0.0000000  0.0000000 -0.1635089  )
         2           Cu  tau(   2) = (  0.3333333  0.0000000 -0.1635089  )
         3           Cu  tau(   3) = (  0.6666667  0.0000000 -0.1635089  )
         4           Cu  tau(   4) = ( -0.0000001  0.3333335 -0.1635089  )
         5           Cu  tau(   5) = (  0.3333333  0.3333335 -0.1635089  )
         6           Cu  tau(   6) = (  0.6666666  0.3333335 -0.1635089  )
         7           Cu  tau(   7) = ( -0.0000002  0.6666670 -0.1635089  )
         8           Cu  tau(   8) = (  0.3333332  0.6666670 -0.1635089  )
         9           Cu  tau(   9) = (  0.6666665  0.6666670 -0.1635089  )
        10           Cu  tau(  10) = (  0.1119684  0.1119687 -0.1100172  )
        11           Cu  tau(  11) = (  0.4443691  0.1112618 -0.1099508  )
        12           Cu  tau(  12) = (  0.7760631  0.1119687 -0.1100172  )
        13           Cu  tau(  13) = (  0.1112615  0.4443694 -0.1099508  )
        14           Cu  tau(  14) = (  0.4443692  0.4443695 -0.1099507  )
        15           Cu  tau(  15) = (  0.7776494  0.4447013 -0.1101102  )
        16           Cu  tau(  16) = (  0.1119685  0.7760633 -0.1100172  )
        17           Cu  tau(  17) = (  0.4447012  0.7776495 -0.1101102  )
        18           Cu  tau(  18) = (  0.7776494  0.7776495 -0.1101102  )
        19           Cu  tau(  19) = ( -0.1107960  0.2215923 -0.0573925  )
        20           Cu  tau(  20) = (  0.2239831  0.2239834 -0.0557362  )
        21           Cu  tau(  21) = (  0.5520338  0.2239834 -0.0557362  )
        22           Cu  tau(  22) = ( -0.1109413  0.5554709 -0.0569422  )
        23           Cu  tau(  23) = (  0.2239831  0.5520341 -0.0557362  )
        24           Cu  tau(  24) = (  0.5554707  0.5554709 -0.0569421  )
        25           Cu  tau(  25) = ( -0.1107959  0.8892042 -0.0573925  )
        26           Cu  tau(  26) = (  0.2215921  0.8892042 -0.0573925  )
        27           Cu  tau(  27) = (  0.5554707  0.8890589 -0.0569422  )
        28           Cu  tau(  28) = ( -0.0000001  0.0000002 -0.0041125  )
        29           Cu  tau(  29) = (  0.3337730 -0.0040029 -0.0039304  )
        30           Cu  tau(  30) = (  0.6702299 -0.0040028 -0.0039305  )
        31           Cu  tau(  31) = ( -0.0040031  0.3337733 -0.0039305  )
        32           Cu  tau(  32) = (  0.3333333  0.3333336  0.0000000  )
        33           Cu  tau(  33) = (  0.6702298  0.3337733 -0.0039305  )
        34           Cu  tau(  34) = ( -0.0040030  0.6702300 -0.0039305  )
        35           Cu  tau(  35) = (  0.3337731  0.6702300 -0.0039305  )
        36           Cu  tau(  36) = (  0.6666666  0.6666667 -0.0038005  )
        37           C   tau(  37) = (  0.3333329  0.3333330  0.0475161  )
        38           O   tau(  38) = (  0.3333326  0.3333326  0.0765255  )

     number of k points=    34  Marzari-Vanderbilt smearing, width (Ry)=  0.0073
                       cart. coord. in units 2pi/alat
        k(    1) = (   0.0000000   0.0000000   0.0000000), wk =   0.0312500
        k(    2) = (   0.0000000   0.1443376   0.0000000), wk =   0.0625000
        k(    3) = (   0.0000000   0.2886753   0.0000000), wk =   0.0625000
        k(    4) = (   0.0000000   0.4330129   0.0000000), wk =   0.0625000
        k(    5) = (   0.0000000  -0.5773505   0.0000000), wk =   0.0312500
        k(    6) = (   0.1250000  -0.0721688   0.0000000), wk =   0.0625000
        k(    7) = (   0.1250000   0.0721688   0.0000000), wk =   0.0625000
        k(    8) = (   0.1250000   0.2165065   0.0000000), wk =   0.0625000
        k(    9) = (   0.1250000   0.3608441   0.0000000), wk =   0.0625000
        k(   10) = (   0.1250000  -0.6495194   0.0000000), wk =   0.0625000
        k(   11) = (   0.1250000  -0.5051817   0.0000000), wk =   0.0625000
        k(   12) = (   0.1250000  -0.3608441   0.0000000), wk =   0.0625000
        k(   13) = (   0.1250000  -0.2165065   0.0000000), wk =   0.0625000
        k(   14) = (   0.2500000  -0.1443376   0.0000000), wk =   0.0625000
        k(   15) = (   0.2500000   0.0000000   0.0000000), wk =   0.0625000
        k(   16) = (   0.2500000   0.1443376   0.0000000), wk =   0.0625000
        k(   17) = (   0.2500000   0.2886753   0.0000000), wk =   0.0625000
        k(   18) = (   0.2500000  -0.7216882   0.0000000), wk =   0.0625000
        k(   19) = (   0.2500000  -0.5773505   0.0000000), wk =   0.0625000
        k(   20) = (   0.2500000  -0.4330129   0.0000000), wk =   0.0625000
        k(   21) = (   0.2500000  -0.2886753   0.0000000), wk =   0.0625000
        k(   22) = (   0.3750000  -0.2165065   0.0000000), wk =   0.0625000
        k(   23) = (   0.3750000  -0.0721688   0.0000000), wk =   0.0625000
        k(   24) = (   0.3750000   0.0721688   0.0000000), wk =   0.0625000
        k(   25) = (   0.3750000   0.2165065   0.0000000), wk =   0.0625000
        k(   26) = (   0.3750000  -0.7938570   0.0000000), wk =   0.0625000
        k(   27) = (   0.3750000  -0.6495194   0.0000000), wk =   0.0625000
        k(   28) = (   0.3750000  -0.5051817   0.0000000), wk =   0.0625000
        k(   29) = (   0.3750000  -0.3608441   0.0000000), wk =   0.0625000
        k(   30) = (  -0.5000000   0.2886753   0.0000000), wk =   0.0312500
        k(   31) = (  -0.5000000   0.4330129   0.0000000), wk =   0.0625000
        k(   32) = (  -0.5000000   0.5773505   0.0000000), wk =   0.0625000
        k(   33) = (  -0.5000000   0.7216882   0.0000000), wk =   0.0625000
        k(   34) = (  -0.5000000  -0.2886753   0.0000000), wk =   0.0312500

                       cryst. coord.
        k(    1) = (   0.0000000   0.0000000   0.0000000), wk =   0.0312500
        k(    2) = (   0.0000000   0.1250000   0.0000000), wk =   0.0625000
        k(    3) = (   0.0000000   0.2500000   0.0000000), wk =   0.0625000
        k(    4) = (   0.0000000   0.3750000   0.0000000), wk =   0.0625000
        k(    5) = (   0.0000000  -0.5000000   0.0000000), wk =   0.0312500
        k(    6) = (   0.1250000   0.0000000   0.0000000), wk =   0.0625000
        k(    7) = (   0.1250000   0.1250000   0.0000000), wk =   0.0625000
        k(    8) = (   0.1250000   0.2500000   0.0000000), wk =   0.0625000
        k(    9) = (   0.1250000   0.3750000   0.0000000), wk =   0.0625000
        k(   10) = (   0.1250000  -0.5000000   0.0000000), wk =   0.0625000
        k(   11) = (   0.1250000  -0.3750000   0.0000000), wk =   0.0625000
        k(   12) = (   0.1250000  -0.2500000   0.0000000), wk =   0.0625000
        k(   13) = (   0.1250000  -0.1250000   0.0000000), wk =   0.0625000
        k(   14) = (   0.2500000   0.0000000   0.0000000), wk =   0.0625000
        k(   15) = (   0.2500000   0.1250000   0.0000000), wk =   0.0625000
        k(   16) = (   0.2500000   0.2500000   0.0000000), wk =   0.0625000
        k(   17) = (   0.2500000   0.3750000   0.0000000), wk =   0.0625000
        k(   18) = (   0.2500000  -0.5000000   0.0000000), wk =   0.0625000
        k(   19) = (   0.2500000  -0.3750000   0.0000000), wk =   0.0625000
        k(   20) = (   0.2500000  -0.2500000   0.0000000), wk =   0.0625000
        k(   21) = (   0.2500000  -0.1250000   0.0000000), wk =   0.0625000
        k(   22) = (   0.3750000   0.0000000   0.0000000), wk =   0.0625000
        k(   23) = (   0.3750000   0.1250000   0.0000000), wk =   0.0625000
        k(   24) = (   0.3750000   0.2500000   0.0000000), wk =   0.0625000
        k(   25) = (   0.3750000   0.3750000   0.0000000), wk =   0.0625000
        k(   26) = (   0.3750000  -0.5000000   0.0000000), wk =   0.0625000
        k(   27) = (   0.3750000  -0.3750000   0.0000000), wk =   0.0625000
        k(   28) = (   0.3750000  -0.2500000   0.0000000), wk =   0.0625000
        k(   29) = (   0.3750000  -0.1250000   0.0000000), wk =   0.0625000
        k(   30) = (  -0.5000000   0.0000000   0.0000000), wk =   0.0312500
        k(   31) = (  -0.5000000   0.1250000   0.0000000), wk =   0.0625000
        k(   32) = (  -0.5000000   0.2500000   0.0000000), wk =   0.0625000
        k(   33) = (  -0.5000000   0.3750000   0.0000000), wk =   0.0625000
        k(   34) = (  -0.5000000  -0.5000000   0.0000000), wk =   0.0312500

     Dense  grid:  3875677 G-vectors     FFT dimensions: ( 120, 120, 625)

     Smooth grid:   980529 G-vectors     FFT dimensions: (  75,  75, 384)

     Estimated max dynamical RAM per process >     140.99MB

     Estimated total allocated dynamical RAM >   33838.49MB

     Solute:
       # atom     E (kcal/mol)  S (angs)
       1  Cu      1.00000000    3.00000000    given
       2  Cu      1.00000000    3.00000000    given
       3  Cu      1.00000000    3.00000000    given
       4  Cu      1.00000000    3.00000000    given
       5  Cu      1.00000000    3.00000000    given
       6  Cu      1.00000000    3.00000000    given
       7  Cu      1.00000000    3.00000000    given
       8  Cu      1.00000000    3.00000000    given
       9  Cu      1.00000000    3.00000000    given
      10  Cu      1.00000000    3.00000000    given
      11  Cu      1.00000000    3.00000000    given
      12  Cu      1.00000000    3.00000000    given
      13  Cu      1.00000000    3.00000000    given
      14  Cu      1.00000000    3.00000000    given
      15  Cu      1.00000000    3.00000000    given
      16  Cu      1.00000000    3.00000000    given
      17  Cu      1.00000000    3.00000000    given
      18  Cu      1.00000000    3.00000000    given
      19  Cu      1.00000000    3.00000000    given
      20  Cu      1.00000000    3.00000000    given
      21  Cu      1.00000000    3.00000000    given
      22  Cu      1.00000000    3.00000000    given
      23  Cu      1.00000000    3.00000000    given
      24  Cu      1.00000000    3.00000000    given
      25  Cu      1.00000000    3.00000000    given
      26  Cu      1.00000000    3.00000000    given
      27  Cu      1.00000000    3.00000000    given
      28  Cu      1.00000000    3.00000000    given
      29  Cu      1.00000000    3.00000000    given
      30  Cu      1.00000000    3.00000000    given
      31  Cu      1.00000000    3.00000000    given
      32  Cu      1.00000000    3.00000000    given
      33  Cu      1.00000000    3.00000000    given
      34  Cu      1.00000000    3.00000000    given
      35  Cu      1.00000000    3.00000000    given
      36  Cu      1.00000000    3.00000000    given
      37  C       0.07000000    3.55000000    OPLS-AA
      38  O       0.17000000    3.00000000    OPLS-AA

     Wall:
       Density =    0.01000000  bohr^-3
       E       =    0.10000000  kcal/mol
       S       =    4.00000000  angs

     L.J. cutoff radius =       5.0000  S


     Laue-RISM info
     --------------
     closure equation        =           KH
     temperature             =     300.0000  kelvin
     coulomb smearing radius =       2.0000  bohr
     number of solvent sites =            6
     solvent sites           =    O/h2o   H/h2o   L/h2o       K
     solvent sites           =     O/oh    H/oh
     #R-grids in local       =        11250
     #Rz-grids (unit-cell)   =          384
     #Rz-grids (expand-cell) =          720
     #G-grids in local       =         4081
     #Gxy-grids in local     =           17
     #Gxy-shells in local    =           17
     number of iterations    =        10000
     convergence threshold   =      1.0E-06
     convergence level       =       0.8000
     size of MDIIS           =           20
     step of MDIIS           =       0.8000
     solvent cutoff          =     249.8954  Ry
     Custom grid:   980529 G-vectors     FFT dimensions: (  75,  75, 384)

     Boundary Conditions        : Vacuum-Slab-Solvent
     unit-cell (in bohr)        : [ -37.794523  37.794523]
     expand-cell (in bohr)      : [ -37.794523 103.934937]
     solvent of right (in bohr) : [  -8.267552 103.934937]
     buffer  of right (in bohr) : [ -18.109875  -8.267552]
     Gxy = 0 of right (in bohr) : [ -18.109875  82.872365]
     repulsive wall (in bohr)   : [  -Infinity -10.486273]
     reference of potential     : right-hand side
     #grids to fit at edges of unit-cell =    4
     Laue grid:     3865 Gxy-vectors     FFT dimensions: (  75,  75, 720)


     MPI for site:
     number of site groups     =            1
     #procs in a site group    =          240
     this proc in a site group =            0
     the root in a site group  =            0
     this site group           =            0
     inter-site group comm.    =           23
     intra-site group comm.    =            5
     total number of sites     =            6
     starting index of sites   =            1
     ending index of sites     =            6


     MPI for task:
     #procs in a task group    =          240
     this proc in a task group =            0
     the root in a task group  =            0
     task group comm.          =            5


     Initial potential from superposition of free atoms
     Check: negative starting charge=   -0.001648

     starting charge  405.99177, renormalised to  406.00000

     Correlation function is read from file


     negative rho (up, down):  1.648E-03 0.000E+00


     %%%%%%%%%%%%%%%%%%%%%%%%%%%%%%%%%%%%%%%%%%%%%%%%%%%%%%%%%%%%%%%%%%%%%%%%
     %                                                                      %
     % You are using vdW-DF, which was implemented by the Thonhauser group. %
     % Please cite the following two papers that made this development      %
     % possible and the two reviews that describe the various versions:     %
     %                                                                      %
     %   T. Thonhauser et al., PRL 115, 136402 (2015).                      %
     %   T. Thonhauser et al., PRB 76, 125112 (2007).                       %
     %   K. Berland et al., Rep. Prog. Phys. 78, 066501 (2015).             %
     %   D.C. Langreth et al., J. Phys.: Condens. Matter 21, 084203 (2009). %
     %                                                                      %
     %                                                                      %
     % If you are calculating the stress with vdW-DF, please also cite:     %
     %                                                                      %
     %   R. Sabatini et al., J. Phys.: Condens. Matter 24, 424209 (2012).   %
     %                                                                      %
     %%%%%%%%%%%%%%%%%%%%%%%%%%%%%%%%%%%%%%%%%%%%%%%%%%%%%%%%%%%%%%%%%%%%%%%%


     Carrying out vdW-DF run using the following parameters:
     Nqs    =  20  Npoints =  1024  r_max =  100.000
     q_mesh =  0.00001000  0.04494208  0.09755937  0.15916263
               0.23128650  0.31572767  0.41458969  0.53033537
               0.66584808  0.82450364  1.01025438  1.22772762
               1.48234092  1.78043706  2.12944203  2.53805004
               3.01644009  3.57652955  4.23227104  5.00000000


     -----------------------------------------------
     Non-local corr. energy    =      22.28451966 Ry
     -----------------------------------------------


     Laue-RISM Calculation

     convergence threshold    = 6.310E-06
     iter. #     1  RMS(g-h-1)= 7.682E-02  nbox=  0
     iter. #     2  RMS(g-h-1)= 5.877E-02  nbox=  1
     iter. #     3  RMS(g-h-1)= 3.532E-02  nbox=  2
     iter. #     4  RMS(g-h-1)= 1.428E-02  nbox=  3
     iter. #     5  RMS(g-h-1)= 1.197E-02  nbox=  4
     iter. #     6  RMS(g-h-1)= 9.463E-03  nbox=  5
     iter. #     7  RMS(g-h-1)= 7.647E-03  nbox=  6
     iter. #     8  RMS(g-h-1)= 6.843E-03  nbox=  7
     iter. #     9  RMS(g-h-1)= 6.527E-03  nbox=  8
     iter. #    10  RMS(g-h-1)= 6.044E-03  nbox=  9
     iter. #    11  RMS(g-h-1)= 5.688E-03  nbox= 10
     iter. #    12  RMS(g-h-1)= 5.392E-03  nbox= 11
     iter. #    13  RMS(g-h-1)= 5.118E-03  nbox= 12
     iter. #    14  RMS(g-h-1)= 4.717E-03  nbox= 13
     iter. #    15  RMS(g-h-1)= 4.403E-03  nbox= 14
     iter. #    16  RMS(g-h-1)= 4.166E-03  nbox= 15
     iter. #    17  RMS(g-h-1)= 3.708E-03  nbox= 16
     iter. #    18  RMS(g-h-1)= 3.233E-03  nbox= 17
     iter. #    19  RMS(g-h-1)= 2.937E-03  nbox= 18
     iter. #    20  RMS(g-h-1)= 2.684E-03  nbox= 19
     iter. #    21  RMS(g-h-1)= 2.379E-03  nbox= 20
     iter. #    22  RMS(g-h-1)= 2.117E-03  nbox= 20
     iter. #    23  RMS(g-h-1)= 1.994E-03  nbox= 20
     iter. #    24  RMS(g-h-1)= 1.878E-03  nbox= 20
     iter. #    25  RMS(g-h-1)= 1.771E-03  nbox= 20
     iter. #    26  RMS(g-h-1)= 1.693E-03  nbox= 20
     iter. #    27  RMS(g-h-1)= 1.641E-03  nbox= 20
     iter. #    28  RMS(g-h-1)= 1.554E-03  nbox= 20
     iter. #    29  RMS(g-h-1)= 1.499E-03  nbox= 20
     iter. #    30  RMS(g-h-1)= 1.453E-03  nbox= 20
     iter. #    31  RMS(g-h-1)= 1.400E-03  nbox= 20
     iter. #    32  RMS(g-h-1)= 1.378E-03  nbox= 20
     iter. #    33  RMS(g-h-1)= 1.308E-03  nbox= 20
     iter. #    34  RMS(g-h-1)= 1.273E-03  nbox= 20
     iter. #    35  RMS(g-h-1)= 1.199E-03  nbox= 20
     iter. #    36  RMS(g-h-1)= 1.155E-03  nbox= 20
     iter. #    37  RMS(g-h-1)= 1.140E-03  nbox= 20
     iter. #    38  RMS(g-h-1)= 1.068E-03  nbox= 20
     iter. #    39  RMS(g-h-1)= 1.039E-03  nbox= 20
     iter. #    40  RMS(g-h-1)= 1.007E-03  nbox= 20
     iter. #    41  RMS(g-h-1)= 9.956E-04  nbox= 20
     iter. #    42  RMS(g-h-1)= 9.677E-04  nbox= 20
     iter. #    43  RMS(g-h-1)= 9.569E-04  nbox= 20
     iter. #    44  RMS(g-h-1)= 9.262E-04  nbox= 20
     iter. #    45  RMS(g-h-1)= 9.151E-04  nbox= 20
     iter. #    46  RMS(g-h-1)= 9.073E-04  nbox= 20
     iter. #    47  RMS(g-h-1)= 8.819E-04  nbox= 20
     iter. #    48  RMS(g-h-1)= 8.759E-04  nbox= 20
     iter. #    49  RMS(g-h-1)= 8.701E-04  nbox= 20
     iter. #    50  RMS(g-h-1)= 8.518E-04  nbox= 20
     iter. #    51  RMS(g-h-1)= 8.454E-04  nbox= 20
     iter. #    52  RMS(g-h-1)= 8.324E-04  nbox= 20
     iter. #    53  RMS(g-h-1)= 8.254E-04  nbox= 20
     iter. #    54  RMS(g-h-1)= 8.154E-04  nbox= 20
     iter. #    55  RMS(g-h-1)= 8.084E-04  nbox=  2
     iter. #    56  RMS(g-h-1)= 7.918E-04  nbox=  3
     iter. #    57  RMS(g-h-1)= 7.703E-04  nbox=  4
     iter. #    58  RMS(g-h-1)= 7.521E-04  nbox=  5
     iter. #    59  RMS(g-h-1)= 7.390E-04  nbox=  6
     iter. #    60  RMS(g-h-1)= 7.271E-04  nbox=  7
     iter. #    61  RMS(g-h-1)= 7.209E-04  nbox=  8
     iter. #    62  RMS(g-h-1)= 7.056E-04  nbox=  9
     iter. #    63  RMS(g-h-1)= 6.929E-04  nbox= 10
     iter. #    64  RMS(g-h-1)= 6.777E-04  nbox= 11
     iter. #    65  RMS(g-h-1)= 6.864E-04  nbox= 12
     iter. #    66  RMS(g-h-1)= 6.551E-04  nbox= 13
     iter. #    67  RMS(g-h-1)= 6.460E-04  nbox= 14
     iter. #    68  RMS(g-h-1)= 6.337E-04  nbox= 15
     iter. #    69  RMS(g-h-1)= 6.158E-04  nbox= 16
     iter. #    70  RMS(g-h-1)= 6.152E-04  nbox= 17
     iter. #    71  RMS(g-h-1)= 6.128E-04  nbox=  2
     iter. #    72  RMS(g-h-1)= 6.009E-04  nbox=  3
     iter. #    73  RMS(g-h-1)= 5.882E-04  nbox=  4
     iter. #    74  RMS(g-h-1)= 5.786E-04  nbox=  5
     iter. #    75  RMS(g-h-1)= 5.708E-04  nbox=  6
     iter. #    76  RMS(g-h-1)= 5.673E-04  nbox=  7
     iter. #    77  RMS(g-h-1)= 5.573E-04  nbox=  8
     iter. #    78  RMS(g-h-1)= 5.477E-04  nbox=  9
     iter. #    79  RMS(g-h-1)= 5.435E-04  nbox= 10
     iter. #    80  RMS(g-h-1)= 5.249E-04  nbox= 11
     iter. #    81  RMS(g-h-1)= 5.259E-04  nbox= 12
     iter. #    82  RMS(g-h-1)= 5.043E-04  nbox= 13
     iter. #    83  RMS(g-h-1)= 4.908E-04  nbox= 14
     iter. #    84  RMS(g-h-1)= 4.739E-04  nbox= 15
     iter. #    85  RMS(g-h-1)= 4.608E-04  nbox= 16
     iter. #    86  RMS(g-h-1)= 4.555E-04  nbox= 17
     iter. #    87  RMS(g-h-1)= 4.512E-04  nbox=  2
     iter. #    88  RMS(g-h-1)= 4.417E-04  nbox=  3
     iter. #    89  RMS(g-h-1)= 4.337E-04  nbox=  4
     iter. #    90  RMS(g-h-1)= 4.276E-04  nbox=  5
     iter. #    91  RMS(g-h-1)= 4.206E-04  nbox=  6
     iter. #    92  RMS(g-h-1)= 4.200E-04  nbox=  7
     iter. #    93  RMS(g-h-1)= 4.117E-04  nbox=  8
     iter. #    94  RMS(g-h-1)= 4.052E-04  nbox=  9
     iter. #    95  RMS(g-h-1)= 3.952E-04  nbox= 10
     iter. #    96  RMS(g-h-1)= 3.961E-04  nbox= 11
     iter. #    97  RMS(g-h-1)= 3.840E-04  nbox= 12
     iter. #    98  RMS(g-h-1)= 3.767E-04  nbox= 13
     iter. #    99  RMS(g-h-1)= 3.695E-04  nbox= 14
     iter. #   100  RMS(g-h-1)= 3.629E-04  nbox= 15
     iter. #   101  RMS(g-h-1)= 3.644E-04  nbox= 16
     iter. #   102  RMS(g-h-1)= 3.557E-04  nbox= 17
     iter. #   103  RMS(g-h-1)= 3.572E-04  nbox=  2
     iter. #   104  RMS(g-h-1)= 3.502E-04  nbox=  3
     iter. #   105  RMS(g-h-1)= 3.467E-04  nbox=  4
     iter. #   106  RMS(g-h-1)= 3.431E-04  nbox=  5
     iter. #   107  RMS(g-h-1)= 3.412E-04  nbox=  6
     iter. #   108  RMS(g-h-1)= 3.363E-04  nbox=  7
     iter. #   109  RMS(g-h-1)= 3.319E-04  nbox=  8
     iter. #   110  RMS(g-h-1)= 3.267E-04  nbox=  9
     iter. #   111  RMS(g-h-1)= 3.220E-04  nbox= 10
     iter. #   112  RMS(g-h-1)= 3.166E-04  nbox= 11
     iter. #   113  RMS(g-h-1)= 3.146E-04  nbox= 12
     iter. #   114  RMS(g-h-1)= 3.101E-04  nbox= 13
     iter. #   115  RMS(g-h-1)= 3.047E-04  nbox= 14
     iter. #   116  RMS(g-h-1)= 3.136E-04  nbox= 15
     iter. #   117  RMS(g-h-1)= 2.986E-04  nbox= 16
     iter. #   118  RMS(g-h-1)= 2.978E-04  nbox= 17
     iter. #   119  RMS(g-h-1)= 2.969E-04  nbox=  2
     iter. #   120  RMS(g-h-1)= 2.941E-04  nbox=  3
     iter. #   121  RMS(g-h-1)= 2.912E-04  nbox=  4
     iter. #   122  RMS(g-h-1)= 2.883E-04  nbox=  5
     iter. #   123  RMS(g-h-1)= 2.850E-04  nbox=  6
     iter. #   124  RMS(g-h-1)= 2.821E-04  nbox=  7
     iter. #   125  RMS(g-h-1)= 2.802E-04  nbox=  8
     iter. #   126  RMS(g-h-1)= 2.788E-04  nbox=  9
     iter. #   127  RMS(g-h-1)= 2.760E-04  nbox= 10
     iter. #   128  RMS(g-h-1)= 2.737E-04  nbox= 11
     iter. #   129  RMS(g-h-1)= 2.704E-04  nbox= 12
     iter. #   130  RMS(g-h-1)= 2.681E-04  nbox= 13
     iter. #   131  RMS(g-h-1)= 2.657E-04  nbox= 14
     iter. #   132  RMS(g-h-1)= 2.620E-04  nbox= 15
     iter. #   133  RMS(g-h-1)= 2.579E-04  nbox= 16
     iter. #   134  RMS(g-h-1)= 2.533E-04  nbox= 17
     iter. #   135  RMS(g-h-1)= 2.529E-04  nbox=  2
     iter. #   136  RMS(g-h-1)= 2.489E-04  nbox=  3
     iter. #   137  RMS(g-h-1)= 2.466E-04  nbox=  4
     iter. #   138  RMS(g-h-1)= 2.447E-04  nbox=  5
     iter. #   139  RMS(g-h-1)= 2.427E-04  nbox=  6
     iter. #   140  RMS(g-h-1)= 2.402E-04  nbox=  7
     iter. #   141  RMS(g-h-1)= 2.378E-04  nbox=  8
     iter. #   142  RMS(g-h-1)= 2.345E-04  nbox=  9
     iter. #   143  RMS(g-h-1)= 2.381E-04  nbox= 10
     iter. #   144  RMS(g-h-1)= 2.299E-04  nbox= 11
     iter. #   145  RMS(g-h-1)= 2.297E-04  nbox= 12
     iter. #   146  RMS(g-h-1)= 2.266E-04  nbox= 13
     iter. #   147  RMS(g-h-1)= 2.242E-04  nbox= 14
     iter. #   148  RMS(g-h-1)= 2.250E-04  nbox= 15
     iter. #   149  RMS(g-h-1)= 2.224E-04  nbox= 16
     iter. #   150  RMS(g-h-1)= 2.205E-04  nbox= 17
     iter. #   151  RMS(g-h-1)= 2.196E-04  nbox=  2
     iter. #   152  RMS(g-h-1)= 2.179E-04  nbox=  3
     iter. #   153  RMS(g-h-1)= 2.162E-04  nbox=  4
     iter. #   154  RMS(g-h-1)= 2.147E-04  nbox=  5
     iter. #   155  RMS(g-h-1)= 2.135E-04  nbox=  6
     iter. #   156  RMS(g-h-1)= 2.125E-04  nbox=  7
     iter. #   157  RMS(g-h-1)= 2.112E-04  nbox=  8
     iter. #   158  RMS(g-h-1)= 2.095E-04  nbox=  9
     iter. #   159  RMS(g-h-1)= 2.078E-04  nbox= 10
     iter. #   160  RMS(g-h-1)= 2.092E-04  nbox= 11
     iter. #   161  RMS(g-h-1)= 2.060E-04  nbox= 12
     iter. #   162  RMS(g-h-1)= 2.048E-04  nbox= 13
     iter. #   163  RMS(g-h-1)= 2.033E-04  nbox= 14
     iter. #   164  RMS(g-h-1)= 2.024E-04  nbox= 15
     iter. #   165  RMS(g-h-1)= 2.016E-04  nbox= 16
     iter. #   166  RMS(g-h-1)= 2.002E-04  nbox= 17
     iter. #   167  RMS(g-h-1)= 2.000E-04  nbox=  2
     iter. #   168  RMS(g-h-1)= 1.988E-04  nbox=  3
     iter. #   169  RMS(g-h-1)= 1.975E-04  nbox=  4
     iter. #   170  RMS(g-h-1)= 1.967E-04  nbox=  5
     iter. #   171  RMS(g-h-1)= 1.952E-04  nbox=  6
     iter. #   172  RMS(g-h-1)= 1.950E-04  nbox=  7
     iter. #   173  RMS(g-h-1)= 1.932E-04  nbox=  8
     iter. #   174  RMS(g-h-1)= 1.917E-04  nbox=  9
     iter. #   175  RMS(g-h-1)= 1.900E-04  nbox= 10
     iter. #   176  RMS(g-h-1)= 1.883E-04  nbox= 11
     iter. #   177  RMS(g-h-1)= 1.874E-04  nbox= 12
     iter. #   178  RMS(g-h-1)= 1.862E-04  nbox= 13
     iter. #   179  RMS(g-h-1)= 1.849E-04  nbox= 14
     iter. #   180  RMS(g-h-1)= 1.837E-04  nbox= 15
     iter. #   181  RMS(g-h-1)= 1.821E-04  nbox= 16
     iter. #   182  RMS(g-h-1)= 1.829E-04  nbox= 17
     iter. #   183  RMS(g-h-1)= 1.833E-04  nbox=  2
     iter. #   184  RMS(g-h-1)= 1.810E-04  nbox=  3
     iter. #   185  RMS(g-h-1)= 1.801E-04  nbox=  4
     iter. #   186  RMS(g-h-1)= 1.793E-04  nbox=  5
     iter. #   187  RMS(g-h-1)= 1.784E-04  nbox=  6
     iter. #   188  RMS(g-h-1)= 1.778E-04  nbox=  7
     iter. #   189  RMS(g-h-1)= 1.774E-04  nbox=  8
     iter. #   190  RMS(g-h-1)= 1.769E-04  nbox=  9
     iter. #   191  RMS(g-h-1)= 1.763E-04  nbox= 10
     iter. #   192  RMS(g-h-1)= 1.757E-04  nbox= 11
     iter. #   193  RMS(g-h-1)= 1.751E-04  nbox= 12
     iter. #   194  RMS(g-h-1)= 1.745E-04  nbox= 13
     iter. #   195  RMS(g-h-1)= 1.741E-04  nbox= 14
     iter. #   196  RMS(g-h-1)= 1.737E-04  nbox= 15
     iter. #   197  RMS(g-h-1)= 1.731E-04  nbox= 16
     iter. #   198  RMS(g-h-1)= 1.725E-04  nbox= 17
     iter. #   199  RMS(g-h-1)= 1.723E-04  nbox=  2
     iter. #   200  RMS(g-h-1)= 1.717E-04  nbox=  3
     iter. #   201  RMS(g-h-1)= 1.708E-04  nbox=  4
     iter. #   202  RMS(g-h-1)= 1.730E-04  nbox=  5
     iter. #   203  RMS(g-h-1)= 1.696E-04  nbox=  6
     iter. #   204  RMS(g-h-1)= 1.696E-04  nbox=  7
     iter. #   205  RMS(g-h-1)= 1.689E-04  nbox=  8
     iter. #   206  RMS(g-h-1)= 1.683E-04  nbox=  9
     iter. #   207  RMS(g-h-1)= 1.678E-04  nbox= 10
     iter. #   208  RMS(g-h-1)= 1.670E-04  nbox= 11
     iter. #   209  RMS(g-h-1)= 1.669E-04  nbox= 12
     iter. #   210  RMS(g-h-1)= 1.661E-04  nbox= 13
     iter. #   211  RMS(g-h-1)= 1.652E-04  nbox= 14
     iter. #   212  RMS(g-h-1)= 1.643E-04  nbox= 15
     iter. #   213  RMS(g-h-1)= 1.628E-04  nbox= 16
     iter. #   214  RMS(g-h-1)= 1.626E-04  nbox= 17
     iter. #   215  RMS(g-h-1)= 1.624E-04  nbox=  2
     iter. #   216  RMS(g-h-1)= 1.615E-04  nbox=  3
     iter. #   217  RMS(g-h-1)= 1.602E-04  nbox=  4
     iter. #   218  RMS(g-h-1)= 1.586E-04  nbox=  5
     iter. #   219  RMS(g-h-1)= 1.568E-04  nbox=  6
     iter. #   220  RMS(g-h-1)= 1.560E-04  nbox=  7
     iter. #   221  RMS(g-h-1)= 1.546E-04  nbox=  8
     iter. #   222  RMS(g-h-1)= 1.532E-04  nbox=  9
     iter. #   223  RMS(g-h-1)= 1.518E-04  nbox= 10
     iter. #   224  RMS(g-h-1)= 1.501E-04  nbox= 11
     iter. #   225  RMS(g-h-1)= 1.487E-04  nbox= 12
     iter. #   226  RMS(g-h-1)= 1.476E-04  nbox= 13
     iter. #   227  RMS(g-h-1)= 1.467E-04  nbox= 14
     iter. #   228  RMS(g-h-1)= 1.451E-04  nbox= 15
     iter. #   229  RMS(g-h-1)= 1.438E-04  nbox= 16
     iter. #   230  RMS(g-h-1)= 1.421E-04  nbox= 17
     iter. #   231  RMS(g-h-1)= 1.420E-04  nbox=  2
     iter. #   232  RMS(g-h-1)= 1.402E-04  nbox=  3
     iter. #   233  RMS(g-h-1)= 1.387E-04  nbox=  4
     iter. #   234  RMS(g-h-1)= 1.371E-04  nbox=  5
     iter. #   235  RMS(g-h-1)= 1.363E-04  nbox=  6
     iter. #   236  RMS(g-h-1)= 1.351E-04  nbox=  7
     iter. #   237  RMS(g-h-1)= 1.336E-04  nbox=  8
     iter. #   238  RMS(g-h-1)= 1.322E-04  nbox=  9
     iter. #   239  RMS(g-h-1)= 1.308E-04  nbox= 10
     iter. #   240  RMS(g-h-1)= 1.294E-04  nbox= 11
     iter. #   241  RMS(g-h-1)= 1.288E-04  nbox= 12
     iter. #   242  RMS(g-h-1)= 1.272E-04  nbox= 13
     iter. #   243  RMS(g-h-1)= 1.257E-04  nbox= 14
     iter. #   244  RMS(g-h-1)= 1.242E-04  nbox= 15
     iter. #   245  RMS(g-h-1)= 1.236E-04  nbox= 16
     iter. #   246  RMS(g-h-1)= 1.222E-04  nbox= 17
     iter. #   247  RMS(g-h-1)= 1.220E-04  nbox=  2
     iter. #   248  RMS(g-h-1)= 1.208E-04  nbox=  3
     iter. #   249  RMS(g-h-1)= 1.198E-04  nbox=  4
     iter. #   250  RMS(g-h-1)= 1.190E-04  nbox=  5
     iter. #   251  RMS(g-h-1)= 1.183E-04  nbox=  6
     iter. #   252  RMS(g-h-1)= 1.171E-04  nbox=  7
     iter. #   253  RMS(g-h-1)= 1.157E-04  nbox=  8
     iter. #   254  RMS(g-h-1)= 1.142E-04  nbox=  9
     iter. #   255  RMS(g-h-1)= 1.136E-04  nbox= 10
     iter. #   256  RMS(g-h-1)= 1.116E-04  nbox= 11
     iter. #   257  RMS(g-h-1)= 1.117E-04  nbox= 12
     iter. #   258  RMS(g-h-1)= 1.101E-04  nbox= 13
     iter. #   259  RMS(g-h-1)= 1.090E-04  nbox= 14
     iter. #   260  RMS(g-h-1)= 1.079E-04  nbox= 15
     iter. #   261  RMS(g-h-1)= 1.076E-04  nbox= 16
     iter. #   262  RMS(g-h-1)= 1.065E-04  nbox= 17
     iter. #   263  RMS(g-h-1)= 1.062E-04  nbox=  2
     iter. #   264  RMS(g-h-1)= 1.050E-04  nbox=  3
     iter. #   265  RMS(g-h-1)= 1.037E-04  nbox=  4
     iter. #   266  RMS(g-h-1)= 1.029E-04  nbox=  5
     iter. #   267  RMS(g-h-1)= 1.021E-04  nbox=  6
     iter. #   268  RMS(g-h-1)= 1.011E-04  nbox=  7
     iter. #   269  RMS(g-h-1)= 9.999E-05  nbox=  8
     iter. #   270  RMS(g-h-1)= 9.889E-05  nbox=  9
     iter. #   271  RMS(g-h-1)= 9.763E-05  nbox= 10
     iter. #   272  RMS(g-h-1)= 9.628E-05  nbox= 11
     iter. #   273  RMS(g-h-1)= 9.545E-05  nbox= 12
     iter. #   274  RMS(g-h-1)= 9.391E-05  nbox= 13
     iter. #   275  RMS(g-h-1)= 9.259E-05  nbox= 14
     iter. #   276  RMS(g-h-1)= 9.121E-05  nbox= 15
     iter. #   277  RMS(g-h-1)= 9.000E-05  nbox= 16
     iter. #   278  RMS(g-h-1)= 8.890E-05  nbox= 17
     iter. #   279  RMS(g-h-1)= 8.854E-05  nbox=  2
     iter. #   280  RMS(g-h-1)= 8.694E-05  nbox=  3
     iter. #   281  RMS(g-h-1)= 8.546E-05  nbox=  4
     iter. #   282  RMS(g-h-1)= 8.377E-05  nbox=  5
     iter. #   283  RMS(g-h-1)= 8.333E-05  nbox=  6
     iter. #   284  RMS(g-h-1)= 8.128E-05  nbox=  7
     iter. #   285  RMS(g-h-1)= 7.989E-05  nbox=  8
     iter. #   286  RMS(g-h-1)= 7.879E-05  nbox=  9
     iter. #   287  RMS(g-h-1)= 7.687E-05  nbox= 10
     iter. #   288  RMS(g-h-1)= 7.810E-05  nbox= 11
     iter. #   289  RMS(g-h-1)= 7.499E-05  nbox= 12
     iter. #   290  RMS(g-h-1)= 7.402E-05  nbox= 13
     iter. #   291  RMS(g-h-1)= 7.299E-05  nbox= 14
     iter. #   292  RMS(g-h-1)= 7.238E-05  nbox= 15
     iter. #   293  RMS(g-h-1)= 7.171E-05  nbox= 16
     iter. #   294  RMS(g-h-1)= 7.094E-05  nbox= 17
     iter. #   295  RMS(g-h-1)= 7.064E-05  nbox=  2
     iter. #   296  RMS(g-h-1)= 6.979E-05  nbox=  3
     iter. #   297  RMS(g-h-1)= 6.909E-05  nbox=  4
     iter. #   298  RMS(g-h-1)= 6.837E-05  nbox=  5
     iter. #   299  RMS(g-h-1)= 6.786E-05  nbox=  6
     iter. #   300  RMS(g-h-1)= 6.738E-05  nbox=  7
     iter. #   301  RMS(g-h-1)= 6.656E-05  nbox=  8
     iter. #   302  RMS(g-h-1)= 6.578E-05  nbox=  9
     iter. #   303  RMS(g-h-1)= 6.516E-05  nbox= 10
     iter. #   304  RMS(g-h-1)= 6.454E-05  nbox= 11
     iter. #   305  RMS(g-h-1)= 6.595E-05  nbox= 12
     iter. #   306  RMS(g-h-1)= 6.380E-05  nbox= 13
     iter. #   307  RMS(g-h-1)= 6.370E-05  nbox= 14
     iter. #   308  RMS(g-h-1)= 6.321E-05  nbox= 15
     iter. #   309  RMS(g-h-1)= 6.285E-05  nbox= 16
     iter. #   310  RMS(g-h-1)= 6.271E-05  nbox= 17
     iter. #   311  RMS(g-h-1)= 6.258E-05  nbox=  2
     iter. #   312  RMS(g-h-1)= 6.223E-05  nbox=  3
     iter. #   313  RMS(g-h-1)= 6.179E-05  nbox=  4
     iter. #   314  RMS(g-h-1)= 6.142E-05  nbox=  5
     iter. #   315  RMS(g-h-1)= 6.095E-05  nbox=  6
     iter. #   316  RMS(g-h-1)= 6.056E-05  nbox=  7
     iter. #   317  RMS(g-h-1)= 6.033E-05  nbox=  8
     iter. #   318  RMS(g-h-1)= 6.006E-05  nbox=  9
     iter. #   319  RMS(g-h-1)= 5.973E-05  nbox= 10
     iter. #   320  RMS(g-h-1)= 5.942E-05  nbox= 11
     iter. #   321  RMS(g-h-1)= 5.931E-05  nbox= 12
     iter. #   322  RMS(g-h-1)= 5.902E-05  nbox= 13
     iter. #   323  RMS(g-h-1)= 5.958E-05  nbox= 14
     iter. #   324  RMS(g-h-1)= 5.878E-05  nbox= 15
     iter. #   325  RMS(g-h-1)= 5.858E-05  nbox= 16
     iter. #   326  RMS(g-h-1)= 5.838E-05  nbox= 17
     iter. #   327  RMS(g-h-1)= 5.826E-05  nbox=  2
     iter. #   328  RMS(g-h-1)= 5.797E-05  nbox=  3
     iter. #   329  RMS(g-h-1)= 5.759E-05  nbox=  4
     iter. #   330  RMS(g-h-1)= 5.729E-05  nbox=  5
     iter. #   331  RMS(g-h-1)= 5.686E-05  nbox=  6
     iter. #   332  RMS(g-h-1)= 5.735E-05  nbox=  7
     iter. #   333  RMS(g-h-1)= 5.651E-05  nbox=  8
     iter. #   334  RMS(g-h-1)= 5.630E-05  nbox=  9
     iter. #   335  RMS(g-h-1)= 5.598E-05  nbox= 10
     iter. #   336  RMS(g-h-1)= 5.626E-05  nbox= 11
     iter. #   337  RMS(g-h-1)= 5.594E-05  nbox= 12
     iter. #   338  RMS(g-h-1)= 5.608E-05  nbox= 13
     iter. #   339  RMS(g-h-1)= 5.582E-05  nbox= 14
     iter. #   340  RMS(g-h-1)= 5.566E-05  nbox= 15
     iter. #   341  RMS(g-h-1)= 5.543E-05  nbox= 16
     iter. #   342  RMS(g-h-1)= 5.529E-05  nbox= 17
     iter. #   343  RMS(g-h-1)= 5.521E-05  nbox=  2
     iter. #   344  RMS(g-h-1)= 5.504E-05  nbox=  3
     iter. #   345  RMS(g-h-1)= 5.484E-05  nbox=  4
     iter. #   346  RMS(g-h-1)= 5.462E-05  nbox=  5
     iter. #   347  RMS(g-h-1)= 5.443E-05  nbox=  6
     iter. #   348  RMS(g-h-1)= 5.432E-05  nbox=  7
     iter. #   349  RMS(g-h-1)= 5.415E-05  nbox=  8
     iter. #   350  RMS(g-h-1)= 5.388E-05  nbox=  9
     iter. #   351  RMS(g-h-1)= 5.373E-05  nbox= 10
     iter. #   352  RMS(g-h-1)= 5.353E-05  nbox= 11
     iter. #   353  RMS(g-h-1)= 5.460E-05  nbox= 12
     iter. #   354  RMS(g-h-1)= 5.382E-05  nbox= 13
     iter. #   355  RMS(g-h-1)= 5.381E-05  nbox= 14
     iter. #   356  RMS(g-h-1)= 5.363E-05  nbox= 15
     iter. #   357  RMS(g-h-1)= 5.352E-05  nbox= 16
     iter. #   358  RMS(g-h-1)= 5.348E-05  nbox= 17
     iter. #   359  RMS(g-h-1)= 5.343E-05  nbox=  2
     iter. #   360  RMS(g-h-1)= 5.318E-05  nbox=  3
     iter. #   361  RMS(g-h-1)= 5.298E-05  nbox=  4
     iter. #   362  RMS(g-h-1)= 5.279E-05  nbox=  5
     iter. #   363  RMS(g-h-1)= 5.260E-05  nbox=  6
     iter. #   364  RMS(g-h-1)= 5.250E-05  nbox=  7
     iter. #   365  RMS(g-h-1)= 5.236E-05  nbox=  8
     iter. #   366  RMS(g-h-1)= 5.218E-05  nbox=  9
     iter. #   367  RMS(g-h-1)= 5.202E-05  nbox= 10
     iter. #   368  RMS(g-h-1)= 5.188E-05  nbox= 11
     iter. #   369  RMS(g-h-1)= 5.175E-05  nbox= 12
     iter. #   370  RMS(g-h-1)= 5.162E-05  nbox= 13
     iter. #   371  RMS(g-h-1)= 5.152E-05  nbox= 14
     iter. #   372  RMS(g-h-1)= 5.137E-05  nbox= 15
     iter. #   373  RMS(g-h-1)= 5.120E-05  nbox= 16
     iter. #   374  RMS(g-h-1)= 5.110E-05  nbox= 17
     iter. #   375  RMS(g-h-1)= 5.108E-05  nbox=  2
     iter. #   376  RMS(g-h-1)= 5.100E-05  nbox=  3
     iter. #   377  RMS(g-h-1)= 5.093E-05  nbox=  4
     iter. #   378  RMS(g-h-1)= 5.085E-05  nbox=  5
     iter. #   379  RMS(g-h-1)= 5.080E-05  nbox=  6
     iter. #   380  RMS(g-h-1)= 5.073E-05  nbox=  7
     iter. #   381  RMS(g-h-1)= 5.064E-05  nbox=  8
     iter. #   382  RMS(g-h-1)= 5.052E-05  nbox=  9
     iter. #   383  RMS(g-h-1)= 5.038E-05  nbox= 10
     iter. #   384  RMS(g-h-1)= 5.025E-05  nbox= 11
     iter. #   385  RMS(g-h-1)= 5.013E-05  nbox= 12
     iter. #   386  RMS(g-h-1)= 5.001E-05  nbox= 13
     iter. #   387  RMS(g-h-1)= 4.994E-05  nbox= 14
     iter. #   388  RMS(g-h-1)= 4.980E-05  nbox= 15
     iter. #   389  RMS(g-h-1)= 4.968E-05  nbox= 16
     iter. #   390  RMS(g-h-1)= 4.952E-05  nbox= 17
     iter. #   391  RMS(g-h-1)= 4.956E-05  nbox=  2
     iter. #   392  RMS(g-h-1)= 4.932E-05  nbox=  3
     iter. #   393  RMS(g-h-1)= 4.912E-05  nbox=  4
     iter. #   394  RMS(g-h-1)= 4.897E-05  nbox=  5
     iter. #   395  RMS(g-h-1)= 4.889E-05  nbox=  6
     iter. #   396  RMS(g-h-1)= 4.875E-05  nbox=  7
     iter. #   397  RMS(g-h-1)= 4.862E-05  nbox=  8
     iter. #   398  RMS(g-h-1)= 4.851E-05  nbox=  9
     iter. #   399  RMS(g-h-1)= 4.840E-05  nbox= 10
     iter. #   400  RMS(g-h-1)= 4.830E-05  nbox= 11
     iter. #   401  RMS(g-h-1)= 4.820E-05  nbox= 12
     iter. #   402  RMS(g-h-1)= 4.816E-05  nbox= 13
     iter. #   403  RMS(g-h-1)= 4.808E-05  nbox= 14
     iter. #   404  RMS(g-h-1)= 4.794E-05  nbox= 15
     iter. #   405  RMS(g-h-1)= 4.780E-05  nbox= 16
     iter. #   406  RMS(g-h-1)= 4.759E-05  nbox= 17
     iter. #   407  RMS(g-h-1)= 4.754E-05  nbox=  2
     iter. #   408  RMS(g-h-1)= 4.729E-05  nbox=  3
     iter. #   409  RMS(g-h-1)= 4.703E-05  nbox=  4
     iter. #   410  RMS(g-h-1)= 4.680E-05  nbox=  5
     iter. #   411  RMS(g-h-1)= 4.663E-05  nbox=  6
     iter. #   412  RMS(g-h-1)= 4.643E-05  nbox=  7
     iter. #   413  RMS(g-h-1)= 4.623E-05  nbox=  8
     iter. #   414  RMS(g-h-1)= 4.608E-05  nbox=  9
     iter. #   415  RMS(g-h-1)= 4.592E-05  nbox= 10
     iter. #   416  RMS(g-h-1)= 4.576E-05  nbox= 11
     iter. #   417  RMS(g-h-1)= 4.562E-05  nbox= 12
     iter. #   418  RMS(g-h-1)= 4.553E-05  nbox= 13
     iter. #   419  RMS(g-h-1)= 4.538E-05  nbox= 14
     iter. #   420  RMS(g-h-1)= 4.521E-05  nbox= 15
     iter. #   421  RMS(g-h-1)= 4.510E-05  nbox= 16
     iter. #   422  RMS(g-h-1)= 4.496E-05  nbox= 17
     iter. #   423  RMS(g-h-1)= 4.494E-05  nbox=  2
     iter. #   424  RMS(g-h-1)= 4.483E-05  nbox=  3
     iter. #   425  RMS(g-h-1)= 4.470E-05  nbox=  4
     iter. #   426  RMS(g-h-1)= 4.460E-05  nbox=  5
     iter. #   427  RMS(g-h-1)= 4.453E-05  nbox=  6
     iter. #   428  RMS(g-h-1)= 4.441E-05  nbox=  7
     iter. #   429  RMS(g-h-1)= 4.429E-05  nbox=  8
     iter. #   430  RMS(g-h-1)= 4.418E-05  nbox=  9
     iter. #   431  RMS(g-h-1)= 4.404E-05  nbox= 10
     iter. #   432  RMS(g-h-1)= 4.402E-05  nbox= 11
     iter. #   433  RMS(g-h-1)= 4.387E-05  nbox= 12
     iter. #   434  RMS(g-h-1)= 4.374E-05  nbox= 13
     iter. #   435  RMS(g-h-1)= 4.365E-05  nbox= 14
     iter. #   436  RMS(g-h-1)= 4.354E-05  nbox= 15
     iter. #   437  RMS(g-h-1)= 4.348E-05  nbox= 16
     iter. #   438  RMS(g-h-1)= 4.343E-05  nbox= 17
     iter. #   439  RMS(g-h-1)= 4.339E-05  nbox=  2
     iter. #   440  RMS(g-h-1)= 4.332E-05  nbox=  3
     iter. #   441  RMS(g-h-1)= 4.323E-05  nbox=  4
     iter. #   442  RMS(g-h-1)= 4.313E-05  nbox=  5
     iter. #   443  RMS(g-h-1)= 4.301E-05  nbox=  6
     iter. #   444  RMS(g-h-1)= 4.293E-05  nbox=  7
     iter. #   445  RMS(g-h-1)= 4.284E-05  nbox=  8
     iter. #   446  RMS(g-h-1)= 4.271E-05  nbox=  9
     iter. #   447  RMS(g-h-1)= 4.260E-05  nbox= 10
     iter. #   448  RMS(g-h-1)= 4.250E-05  nbox= 11
     iter. #   449  RMS(g-h-1)= 4.236E-05  nbox= 12
     iter. #   450  RMS(g-h-1)= 4.223E-05  nbox= 13
     iter. #   451  RMS(g-h-1)= 4.212E-05  nbox= 14
     iter. #   452  RMS(g-h-1)= 4.204E-05  nbox= 15
     iter. #   453  RMS(g-h-1)= 4.190E-05  nbox= 16
     iter. #   454  RMS(g-h-1)= 4.174E-05  nbox= 17
     iter. #   455  RMS(g-h-1)= 4.169E-05  nbox=  2
     iter. #   456  RMS(g-h-1)= 4.150E-05  nbox=  3
     iter. #   457  RMS(g-h-1)= 4.132E-05  nbox=  4
     iter. #   458  RMS(g-h-1)= 4.115E-05  nbox=  5
     iter. #   459  RMS(g-h-1)= 4.102E-05  nbox=  6
     iter. #   460  RMS(g-h-1)= 4.090E-05  nbox=  7
     iter. #   461  RMS(g-h-1)= 4.075E-05  nbox=  8
     iter. #   462  RMS(g-h-1)= 4.059E-05  nbox=  9
     iter. #   463  RMS(g-h-1)= 4.042E-05  nbox= 10
     iter. #   464  RMS(g-h-1)= 4.026E-05  nbox= 11
     iter. #   465  RMS(g-h-1)= 4.013E-05  nbox= 12
     iter. #   466  RMS(g-h-1)= 4.003E-05  nbox= 13
     iter. #   467  RMS(g-h-1)= 3.997E-05  nbox= 14
     iter. #   468  RMS(g-h-1)= 3.988E-05  nbox= 15
     iter. #   469  RMS(g-h-1)= 3.975E-05  nbox= 16
     iter. #   470  RMS(g-h-1)= 3.964E-05  nbox= 17
     iter. #   471  RMS(g-h-1)= 3.961E-05  nbox=  2
     iter. #   472  RMS(g-h-1)= 3.946E-05  nbox=  3
     iter. #   473  RMS(g-h-1)= 3.933E-05  nbox=  4
     iter. #   474  RMS(g-h-1)= 3.920E-05  nbox=  5
     iter. #   475  RMS(g-h-1)= 3.906E-05  nbox=  6
     iter. #   476  RMS(g-h-1)= 3.898E-05  nbox=  7
     iter. #   477  RMS(g-h-1)= 3.886E-05  nbox=  8
     iter. #   478  RMS(g-h-1)= 3.869E-05  nbox=  9
     iter. #   479  RMS(g-h-1)= 3.854E-05  nbox= 10
     iter. #   480  RMS(g-h-1)= 3.840E-05  nbox= 11
     iter. #   481  RMS(g-h-1)= 3.824E-05  nbox= 12
     iter. #   482  RMS(g-h-1)= 3.811E-05  nbox= 13
     iter. #   483  RMS(g-h-1)= 3.799E-05  nbox= 14
     iter. #   484  RMS(g-h-1)= 3.794E-05  nbox= 15
     iter. #   485  RMS(g-h-1)= 3.785E-05  nbox= 16
     iter. #   486  RMS(g-h-1)= 3.777E-05  nbox= 17
     iter. #   487  RMS(g-h-1)= 3.775E-05  nbox=  2
     iter. #   488  RMS(g-h-1)= 3.766E-05  nbox=  3
     iter. #   489  RMS(g-h-1)= 3.758E-05  nbox=  4
     iter. #   490  RMS(g-h-1)= 3.752E-05  nbox=  5
     iter. #   491  RMS(g-h-1)= 3.743E-05  nbox=  6
     iter. #   492  RMS(g-h-1)= 3.736E-05  nbox=  7
     iter. #   493  RMS(g-h-1)= 3.731E-05  nbox=  8
     iter. #   494  RMS(g-h-1)= 3.722E-05  nbox=  9
     iter. #   495  RMS(g-h-1)= 3.713E-05  nbox= 10
     iter. #   496  RMS(g-h-1)= 3.703E-05  nbox= 11
     iter. #   497  RMS(g-h-1)= 3.689E-05  nbox= 12
     iter. #   498  RMS(g-h-1)= 3.678E-05  nbox= 13
     iter. #   499  RMS(g-h-1)= 3.665E-05  nbox= 14
     iter. #   500  RMS(g-h-1)= 3.655E-05  nbox= 15
     iter. #   501  RMS(g-h-1)= 3.648E-05  nbox= 16
     iter. #   502  RMS(g-h-1)= 3.637E-05  nbox= 17
     iter. #   503  RMS(g-h-1)= 3.634E-05  nbox=  2
     iter. #   504  RMS(g-h-1)= 3.620E-05  nbox=  3
     iter. #   505  RMS(g-h-1)= 3.605E-05  nbox=  4
     iter. #   506  RMS(g-h-1)= 3.590E-05  nbox=  5
     iter. #   507  RMS(g-h-1)= 3.576E-05  nbox=  6
     iter. #   508  RMS(g-h-1)= 3.564E-05  nbox=  7
     iter. #   509  RMS(g-h-1)= 3.556E-05  nbox=  8
     iter. #   510  RMS(g-h-1)= 3.546E-05  nbox=  9
     iter. #   511  RMS(g-h-1)= 3.536E-05  nbox= 10
     iter. #   512  RMS(g-h-1)= 3.527E-05  nbox= 11
     iter. #   513  RMS(g-h-1)= 3.517E-05  nbox= 12
     iter. #   514  RMS(g-h-1)= 3.510E-05  nbox= 13
     iter. #   515  RMS(g-h-1)= 3.500E-05  nbox= 14
     iter. #   516  RMS(g-h-1)= 3.492E-05  nbox= 15
     iter. #   517  RMS(g-h-1)= 3.487E-05  nbox= 16
     iter. #   518  RMS(g-h-1)= 3.476E-05  nbox= 17
     iter. #   519  RMS(g-h-1)= 3.475E-05  nbox=  2
     iter. #   520  RMS(g-h-1)= 3.465E-05  nbox=  3
     iter. #   521  RMS(g-h-1)= 3.456E-05  nbox=  4
     iter. #   522  RMS(g-h-1)= 3.447E-05  nbox=  5
     iter. #   523  RMS(g-h-1)= 3.440E-05  nbox=  6
     iter. #   524  RMS(g-h-1)= 3.434E-05  nbox=  7
     iter. #   525  RMS(g-h-1)= 3.429E-05  nbox=  8
     iter. #   526  RMS(g-h-1)= 3.422E-05  nbox=  9
     iter. #   527  RMS(g-h-1)= 3.414E-05  nbox= 10
     iter. #   528  RMS(g-h-1)= 3.408E-05  nbox= 11
     iter. #   529  RMS(g-h-1)= 3.399E-05  nbox= 12
     iter. #   530  RMS(g-h-1)= 3.394E-05  nbox= 13
     iter. #   531  RMS(g-h-1)= 3.386E-05  nbox= 14
     iter. #   532  RMS(g-h-1)= 3.380E-05  nbox= 15
     iter. #   533  RMS(g-h-1)= 3.376E-05  nbox= 16
     iter. #   534  RMS(g-h-1)= 3.370E-05  nbox= 17
     iter. #   535  RMS(g-h-1)= 3.368E-05  nbox=  2
     iter. #   536  RMS(g-h-1)= 3.362E-05  nbox=  3
     iter. #   537  RMS(g-h-1)= 3.354E-05  nbox=  4
     iter. #   538  RMS(g-h-1)= 3.347E-05  nbox=  5
     iter. #   539  RMS(g-h-1)= 3.340E-05  nbox=  6
     iter. #   540  RMS(g-h-1)= 3.334E-05  nbox=  7
     iter. #   541  RMS(g-h-1)= 3.330E-05  nbox=  8
     iter. #   542  RMS(g-h-1)= 3.323E-05  nbox=  9
     iter. #   543  RMS(g-h-1)= 3.315E-05  nbox= 10
     iter. #   544  RMS(g-h-1)= 3.307E-05  nbox= 11
     iter. #   545  RMS(g-h-1)= 3.295E-05  nbox= 12
     iter. #   546  RMS(g-h-1)= 3.286E-05  nbox= 13
     iter. #   547  RMS(g-h-1)= 3.273E-05  nbox= 14
     iter. #   548  RMS(g-h-1)= 3.266E-05  nbox= 15
     iter. #   549  RMS(g-h-1)= 3.255E-05  nbox= 16
     iter. #   550  RMS(g-h-1)= 3.240E-05  nbox= 17
     iter. #   551  RMS(g-h-1)= 3.235E-05  nbox=  2
     iter. #   552  RMS(g-h-1)= 3.221E-05  nbox=  3
     iter. #   553  RMS(g-h-1)= 3.207E-05  nbox=  4
     iter. #   554  RMS(g-h-1)= 3.194E-05  nbox=  5
     iter. #   555  RMS(g-h-1)= 3.185E-05  nbox=  6
     iter. #   556  RMS(g-h-1)= 3.174E-05  nbox=  7
     iter. #   557  RMS(g-h-1)= 3.165E-05  nbox=  8
     iter. #   558  RMS(g-h-1)= 3.151E-05  nbox=  9
     iter. #   559  RMS(g-h-1)= 3.136E-05  nbox= 10
     iter. #   560  RMS(g-h-1)= 3.124E-05  nbox= 11
     iter. #   561  RMS(g-h-1)= 3.104E-05  nbox= 12
     iter. #   562  RMS(g-h-1)= 3.086E-05  nbox= 13
     iter. #   563  RMS(g-h-1)= 3.068E-05  nbox= 14
     iter. #   564  RMS(g-h-1)= 3.054E-05  nbox= 15
     iter. #   565  RMS(g-h-1)= 3.032E-05  nbox= 16
     iter. #   566  RMS(g-h-1)= 3.009E-05  nbox= 17
     iter. #   567  RMS(g-h-1)= 3.007E-05  nbox=  2
     iter. #   568  RMS(g-h-1)= 2.984E-05  nbox=  3
     iter. #   569  RMS(g-h-1)= 2.967E-05  nbox=  4
     iter. #   570  RMS(g-h-1)= 2.951E-05  nbox=  5
     iter. #   571  RMS(g-h-1)= 2.942E-05  nbox=  6
     iter. #   572  RMS(g-h-1)= 2.929E-05  nbox=  7
     iter. #   573  RMS(g-h-1)= 2.913E-05  nbox=  8
     iter. #   574  RMS(g-h-1)= 2.893E-05  nbox=  9
     iter. #   575  RMS(g-h-1)= 2.876E-05  nbox= 10
     iter. #   576  RMS(g-h-1)= 2.859E-05  nbox= 11
     iter. #   577  RMS(g-h-1)= 2.842E-05  nbox= 12
     iter. #   578  RMS(g-h-1)= 2.829E-05  nbox= 13
     iter. #   579  RMS(g-h-1)= 2.821E-05  nbox= 14
     iter. #   580  RMS(g-h-1)= 2.809E-05  nbox= 15
     iter. #   581  RMS(g-h-1)= 2.796E-05  nbox= 16
     iter. #   582  RMS(g-h-1)= 2.784E-05  nbox= 17
     iter. #   583  RMS(g-h-1)= 2.783E-05  nbox=  2
     iter. #   584  RMS(g-h-1)= 2.766E-05  nbox=  3
     iter. #   585  RMS(g-h-1)= 2.754E-05  nbox=  4
     iter. #   586  RMS(g-h-1)= 2.738E-05  nbox=  5
     iter. #   587  RMS(g-h-1)= 2.727E-05  nbox=  6
     iter. #   588  RMS(g-h-1)= 2.719E-05  nbox=  7
     iter. #   589  RMS(g-h-1)= 2.708E-05  nbox=  8
     iter. #   590  RMS(g-h-1)= 2.698E-05  nbox=  9
     iter. #   591  RMS(g-h-1)= 2.689E-05  nbox= 10
     iter. #   592  RMS(g-h-1)= 2.681E-05  nbox= 11
     iter. #   593  RMS(g-h-1)= 2.672E-05  nbox= 12
     iter. #   594  RMS(g-h-1)= 2.663E-05  nbox= 13
     iter. #   595  RMS(g-h-1)= 2.656E-05  nbox= 14
     iter. #   596  RMS(g-h-1)= 2.647E-05  nbox= 15
     iter. #   597  RMS(g-h-1)= 2.634E-05  nbox= 16
     iter. #   598  RMS(g-h-1)= 2.624E-05  nbox= 17
     iter. #   599  RMS(g-h-1)= 2.623E-05  nbox=  2
     iter. #   600  RMS(g-h-1)= 2.611E-05  nbox=  3
     iter. #   601  RMS(g-h-1)= 2.603E-05  nbox=  4
     iter. #   602  RMS(g-h-1)= 2.597E-05  nbox=  5
     iter. #   603  RMS(g-h-1)= 2.589E-05  nbox=  6
     iter. #   604  RMS(g-h-1)= 2.588E-05  nbox=  7
     iter. #   605  RMS(g-h-1)= 2.581E-05  nbox=  8
     iter. #   606  RMS(g-h-1)= 2.575E-05  nbox=  9
     iter. #   607  RMS(g-h-1)= 2.569E-05  nbox= 10
     iter. #   608  RMS(g-h-1)= 2.561E-05  nbox= 11
     iter. #   609  RMS(g-h-1)= 2.554E-05  nbox= 12
     iter. #   610  RMS(g-h-1)= 2.546E-05  nbox= 13
     iter. #   611  RMS(g-h-1)= 2.538E-05  nbox= 14
     iter. #   612  RMS(g-h-1)= 2.534E-05  nbox= 15
     iter. #   613  RMS(g-h-1)= 2.525E-05  nbox= 16
     iter. #   614  RMS(g-h-1)= 2.517E-05  nbox= 17
     iter. #   615  RMS(g-h-1)= 2.516E-05  nbox=  2
     iter. #   616  RMS(g-h-1)= 2.506E-05  nbox=  3
     iter. #   617  RMS(g-h-1)= 2.499E-05  nbox=  4
     iter. #   618  RMS(g-h-1)= 2.491E-05  nbox=  5
     iter. #   619  RMS(g-h-1)= 2.483E-05  nbox=  6
     iter. #   620  RMS(g-h-1)= 2.477E-05  nbox=  7
     iter. #   621  RMS(g-h-1)= 2.472E-05  nbox=  8
     iter. #   622  RMS(g-h-1)= 2.465E-05  nbox=  9
     iter. #   623  RMS(g-h-1)= 2.458E-05  nbox= 10
     iter. #   624  RMS(g-h-1)= 2.452E-05  nbox= 11
     iter. #   625  RMS(g-h-1)= 2.445E-05  nbox= 12
     iter. #   626  RMS(g-h-1)= 2.439E-05  nbox= 13
     iter. #   627  RMS(g-h-1)= 2.433E-05  nbox= 14
     iter. #   628  RMS(g-h-1)= 2.429E-05  nbox= 15
     iter. #   629  RMS(g-h-1)= 2.423E-05  nbox= 16
     iter. #   630  RMS(g-h-1)= 2.417E-05  nbox= 17
     iter. #   631  RMS(g-h-1)= 2.416E-05  nbox=  2
     iter. #   632  RMS(g-h-1)= 2.409E-05  nbox=  3
     iter. #   633  RMS(g-h-1)= 2.402E-05  nbox=  4
     iter. #   634  RMS(g-h-1)= 2.397E-05  nbox=  5
     iter. #   635  RMS(g-h-1)= 2.390E-05  nbox=  6
     iter. #   636  RMS(g-h-1)= 2.389E-05  nbox=  7
     iter. #   637  RMS(g-h-1)= 2.382E-05  nbox=  8
     iter. #   638  RMS(g-h-1)= 2.377E-05  nbox=  9
     iter. #   639  RMS(g-h-1)= 2.371E-05  nbox= 10
     iter. #   640  RMS(g-h-1)= 2.366E-05  nbox= 11
     iter. #   641  RMS(g-h-1)= 2.361E-05  nbox= 12
     iter. #   642  RMS(g-h-1)= 2.357E-05  nbox= 13
     iter. #   643  RMS(g-h-1)= 2.354E-05  nbox= 14
     iter. #   644  RMS(g-h-1)= 2.349E-05  nbox= 15
     iter. #   645  RMS(g-h-1)= 2.344E-05  nbox= 16
     iter. #   646  RMS(g-h-1)= 2.338E-05  nbox= 17
     iter. #   647  RMS(g-h-1)= 2.337E-05  nbox=  2
     iter. #   648  RMS(g-h-1)= 2.329E-05  nbox=  3
     iter. #   649  RMS(g-h-1)= 2.324E-05  nbox=  4
     iter. #   650  RMS(g-h-1)= 2.319E-05  nbox=  5
     iter. #   651  RMS(g-h-1)= 2.315E-05  nbox=  6
     iter. #   652  RMS(g-h-1)= 2.313E-05  nbox=  7
     iter. #   653  RMS(g-h-1)= 2.308E-05  nbox=  8
     iter. #   654  RMS(g-h-1)= 2.305E-05  nbox=  9
     iter. #   655  RMS(g-h-1)= 2.300E-05  nbox= 10
     iter. #   656  RMS(g-h-1)= 2.296E-05  nbox= 11
     iter. #   657  RMS(g-h-1)= 2.292E-05  nbox= 12
     iter. #   658  RMS(g-h-1)= 2.287E-05  nbox= 13
     iter. #   659  RMS(g-h-1)= 2.285E-05  nbox= 14
     iter. #   660  RMS(g-h-1)= 2.280E-05  nbox= 15
     iter. #   661  RMS(g-h-1)= 2.275E-05  nbox= 16
     iter. #   662  RMS(g-h-1)= 2.269E-05  nbox= 17
     iter. #   663  RMS(g-h-1)= 2.268E-05  nbox=  2
     iter. #   664  RMS(g-h-1)= 2.262E-05  nbox=  3
     iter. #   665  RMS(g-h-1)= 2.255E-05  nbox=  4
     iter. #   666  RMS(g-h-1)= 2.249E-05  nbox=  5
     iter. #   667  RMS(g-h-1)= 2.244E-05  nbox=  6
     iter. #   668  RMS(g-h-1)= 2.241E-05  nbox=  7
     iter. #   669  RMS(g-h-1)= 2.235E-05  nbox=  8
     iter. #   670  RMS(g-h-1)= 2.230E-05  nbox=  9
     iter. #   671  RMS(g-h-1)= 2.225E-05  nbox= 10
     iter. #   672  RMS(g-h-1)= 2.219E-05  nbox= 11
     iter. #   673  RMS(g-h-1)= 2.214E-05  nbox= 12
     iter. #   674  RMS(g-h-1)= 2.207E-05  nbox= 13
     iter. #   675  RMS(g-h-1)= 2.200E-05  nbox= 14
     iter. #   676  RMS(g-h-1)= 2.196E-05  nbox= 15
     iter. #   677  RMS(g-h-1)= 2.189E-05  nbox= 16
     iter. #   678  RMS(g-h-1)= 2.180E-05  nbox= 17
     iter. #   679  RMS(g-h-1)= 2.178E-05  nbox=  2
     iter. #   680  RMS(g-h-1)= 2.168E-05  nbox=  3
     iter. #   681  RMS(g-h-1)= 2.159E-05  nbox=  4
     iter. #   682  RMS(g-h-1)= 2.152E-05  nbox=  5
     iter. #   683  RMS(g-h-1)= 2.146E-05  nbox=  6
     iter. #   684  RMS(g-h-1)= 2.140E-05  nbox=  7
     iter. #   685  RMS(g-h-1)= 2.131E-05  nbox=  8
     iter. #   686  RMS(g-h-1)= 2.122E-05  nbox=  9
     iter. #   687  RMS(g-h-1)= 2.111E-05  nbox= 10
     iter. #   688  RMS(g-h-1)= 2.101E-05  nbox= 11
     iter. #   689  RMS(g-h-1)= 2.087E-05  nbox= 12
     iter. #   690  RMS(g-h-1)= 2.074E-05  nbox= 13
     iter. #   691  RMS(g-h-1)= 2.064E-05  nbox= 14
     iter. #   692  RMS(g-h-1)= 2.057E-05  nbox= 15
     iter. #   693  RMS(g-h-1)= 2.046E-05  nbox= 16
     iter. #   694  RMS(g-h-1)= 2.034E-05  nbox= 17
     iter. #   695  RMS(g-h-1)= 2.032E-05  nbox=  2
     iter. #   696  RMS(g-h-1)= 2.018E-05  nbox=  3
     iter. #   697  RMS(g-h-1)= 2.007E-05  nbox=  4
     iter. #   698  RMS(g-h-1)= 1.999E-05  nbox=  5
     iter. #   699  RMS(g-h-1)= 1.986E-05  nbox=  6
     iter. #   700  RMS(g-h-1)= 1.979E-05  nbox=  7
     iter. #   701  RMS(g-h-1)= 1.967E-05  nbox=  8
     iter. #   702  RMS(g-h-1)= 1.955E-05  nbox=  9
     iter. #   703  RMS(g-h-1)= 1.944E-05  nbox= 10
     iter. #   704  RMS(g-h-1)= 1.932E-05  nbox= 11
     iter. #   705  RMS(g-h-1)= 1.920E-05  nbox= 12
     iter. #   706  RMS(g-h-1)= 1.913E-05  nbox= 13
     iter. #   707  RMS(g-h-1)= 1.905E-05  nbox= 14
     iter. #   708  RMS(g-h-1)= 1.891E-05  nbox= 15
     iter. #   709  RMS(g-h-1)= 1.880E-05  nbox= 16
     iter. #   710  RMS(g-h-1)= 1.866E-05  nbox= 17
     iter. #   711  RMS(g-h-1)= 1.864E-05  nbox=  2
     iter. #   712  RMS(g-h-1)= 1.851E-05  nbox=  3
     iter. #   713  RMS(g-h-1)= 1.837E-05  nbox=  4
     iter. #   714  RMS(g-h-1)= 1.832E-05  nbox=  5
     iter. #   715  RMS(g-h-1)= 1.819E-05  nbox=  6
     iter. #   716  RMS(g-h-1)= 1.807E-05  nbox=  7
     iter. #   717  RMS(g-h-1)= 1.796E-05  nbox=  8
     iter. #   718  RMS(g-h-1)= 1.783E-05  nbox=  9
     iter. #   719  RMS(g-h-1)= 1.772E-05  nbox= 10
     iter. #   720  RMS(g-h-1)= 1.760E-05  nbox= 11
     iter. #   721  RMS(g-h-1)= 1.750E-05  nbox= 12
     iter. #   722  RMS(g-h-1)= 1.738E-05  nbox= 13
     iter. #   723  RMS(g-h-1)= 1.732E-05  nbox= 14
     iter. #   724  RMS(g-h-1)= 1.719E-05  nbox= 15
     iter. #   725  RMS(g-h-1)= 1.704E-05  nbox= 16
     iter. #   726  RMS(g-h-1)= 1.686E-05  nbox= 17
     iter. #   727  RMS(g-h-1)= 1.682E-05  nbox=  2
     iter. #   728  RMS(g-h-1)= 1.662E-05  nbox=  3
     iter. #   729  RMS(g-h-1)= 1.640E-05  nbox=  4
     iter. #   730  RMS(g-h-1)= 1.631E-05  nbox=  5
     iter. #   731  RMS(g-h-1)= 1.611E-05  nbox=  6
     iter. #   732  RMS(g-h-1)= 1.591E-05  nbox=  7
     iter. #   733  RMS(g-h-1)= 1.573E-05  nbox=  8
     iter. #   734  RMS(g-h-1)= 1.555E-05  nbox=  9
     iter. #   735  RMS(g-h-1)= 1.540E-05  nbox= 10
     iter. #   736  RMS(g-h-1)= 1.527E-05  nbox= 11
     iter. #   737  RMS(g-h-1)= 1.512E-05  nbox= 12
     iter. #   738  RMS(g-h-1)= 1.503E-05  nbox= 13
     iter. #   739  RMS(g-h-1)= 1.494E-05  nbox= 14
     iter. #   740  RMS(g-h-1)= 1.475E-05  nbox= 15
     iter. #   741  RMS(g-h-1)= 1.460E-05  nbox= 16
     iter. #   742  RMS(g-h-1)= 1.441E-05  nbox= 17
     iter. #   743  RMS(g-h-1)= 1.439E-05  nbox=  2
     iter. #   744  RMS(g-h-1)= 1.419E-05  nbox=  3
     iter. #   745  RMS(g-h-1)= 1.402E-05  nbox=  4
     iter. #   746  RMS(g-h-1)= 1.390E-05  nbox=  5
     iter. #   747  RMS(g-h-1)= 1.380E-05  nbox=  6
     iter. #   748  RMS(g-h-1)= 1.365E-05  nbox=  7
     iter. #   749  RMS(g-h-1)= 1.349E-05  nbox=  8
     iter. #   750  RMS(g-h-1)= 1.335E-05  nbox=  9
     iter. #   751  RMS(g-h-1)= 1.318E-05  nbox= 10
     iter. #   752  RMS(g-h-1)= 1.305E-05  nbox= 11
     iter. #   753  RMS(g-h-1)= 1.292E-05  nbox= 12
     iter. #   754  RMS(g-h-1)= 1.285E-05  nbox= 13
     iter. #   755  RMS(g-h-1)= 1.276E-05  nbox= 14
     iter. #   756  RMS(g-h-1)= 1.264E-05  nbox= 15
     iter. #   757  RMS(g-h-1)= 1.254E-05  nbox= 16
     iter. #   758  RMS(g-h-1)= 1.242E-05  nbox= 17
     iter. #   759  RMS(g-h-1)= 1.239E-05  nbox=  2
     iter. #   760  RMS(g-h-1)= 1.229E-05  nbox=  3
     iter. #   761  RMS(g-h-1)= 1.218E-05  nbox=  4
     iter. #   762  RMS(g-h-1)= 1.208E-05  nbox=  5
     iter. #   763  RMS(g-h-1)= 1.204E-05  nbox=  6
     iter. #   764  RMS(g-h-1)= 1.192E-05  nbox=  7
     iter. #   765  RMS(g-h-1)= 1.183E-05  nbox=  8
     iter. #   766  RMS(g-h-1)= 1.174E-05  nbox=  9
     iter. #   767  RMS(g-h-1)= 1.163E-05  nbox= 10
     iter. #   768  RMS(g-h-1)= 1.155E-05  nbox= 11
     iter. #   769  RMS(g-h-1)= 1.146E-05  nbox= 12
     iter. #   770  RMS(g-h-1)= 1.138E-05  nbox= 13
     iter. #   771  RMS(g-h-1)= 1.131E-05  nbox= 14
     iter. #   772  RMS(g-h-1)= 1.126E-05  nbox= 15
     iter. #   773  RMS(g-h-1)= 1.119E-05  nbox= 16
     iter. #   774  RMS(g-h-1)= 1.110E-05  nbox= 17
     iter. #   775  RMS(g-h-1)= 1.107E-05  nbox=  2
     iter. #   776  RMS(g-h-1)= 1.098E-05  nbox=  3
     iter. #   777  RMS(g-h-1)= 1.088E-05  nbox=  4
     iter. #   778  RMS(g-h-1)= 1.078E-05  nbox=  5
     iter. #   779  RMS(g-h-1)= 1.070E-05  nbox=  6
     iter. #   780  RMS(g-h-1)= 1.064E-05  nbox=  7
     iter. #   781  RMS(g-h-1)= 1.058E-05  nbox=  8
     iter. #   782  RMS(g-h-1)= 1.050E-05  nbox=  9
     iter. #   783  RMS(g-h-1)= 1.042E-05  nbox= 10
     iter. #   784  RMS(g-h-1)= 1.034E-05  nbox= 11
     iter. #   785  RMS(g-h-1)= 1.026E-05  nbox= 12
     iter. #   786  RMS(g-h-1)= 1.020E-05  nbox= 13
     iter. #   787  RMS(g-h-1)= 1.013E-05  nbox= 14
     iter. #   788  RMS(g-h-1)= 1.008E-05  nbox= 15
     iter. #   789  RMS(g-h-1)= 1.004E-05  nbox= 16
     iter. #   790  RMS(g-h-1)= 9.972E-06  nbox= 17
     iter. #   791  RMS(g-h-1)= 9.959E-06  nbox=  2
     iter. #   792  RMS(g-h-1)= 9.882E-06  nbox=  3
     iter. #   793  RMS(g-h-1)= 9.821E-06  nbox=  4
     iter. #   794  RMS(g-h-1)= 9.760E-06  nbox=  5
     iter. #   795  RMS(g-h-1)= 9.696E-06  nbox=  6
     iter. #   796  RMS(g-h-1)= 9.645E-06  nbox=  7
     iter. #   797  RMS(g-h-1)= 9.598E-06  nbox=  8
     iter. #   798  RMS(g-h-1)= 9.538E-06  nbox=  9
     iter. #   799  RMS(g-h-1)= 9.460E-06  nbox= 10
     iter. #   800  RMS(g-h-1)= 9.394E-06  nbox= 11
     iter. #   801  RMS(g-h-1)= 9.324E-06  nbox= 12
     iter. #   802  RMS(g-h-1)= 9.254E-06  nbox= 13
     iter. #   803  RMS(g-h-1)= 9.200E-06  nbox= 14
     iter. #   804  RMS(g-h-1)= 9.165E-06  nbox= 15
     iter. #   805  RMS(g-h-1)= 9.123E-06  nbox= 16
     iter. #   806  RMS(g-h-1)= 9.074E-06  nbox= 17
     iter. #   807  RMS(g-h-1)= 9.067E-06  nbox=  2
     iter. #   808  RMS(g-h-1)= 9.003E-06  nbox=  3
     iter. #   809  RMS(g-h-1)= 8.955E-06  nbox=  4
     iter. #   810  RMS(g-h-1)= 8.905E-06  nbox=  5
     iter. #   811  RMS(g-h-1)= 8.848E-06  nbox=  6
     iter. #   812  RMS(g-h-1)= 8.804E-06  nbox=  7
     iter. #   813  RMS(g-h-1)= 8.769E-06  nbox=  8
     iter. #   814  RMS(g-h-1)= 8.729E-06  nbox=  9
     iter. #   815  RMS(g-h-1)= 8.677E-06  nbox= 10
     iter. #   816  RMS(g-h-1)= 8.629E-06  nbox= 11
     iter. #   817  RMS(g-h-1)= 8.588E-06  nbox= 12
     iter. #   818  RMS(g-h-1)= 8.543E-06  nbox= 13
     iter. #   819  RMS(g-h-1)= 8.506E-06  nbox= 14
     iter. #   820  RMS(g-h-1)= 8.463E-06  nbox= 15
     iter. #   821  RMS(g-h-1)= 8.425E-06  nbox= 16
     iter. #   822  RMS(g-h-1)= 8.405E-06  nbox= 17
     iter. #   823  RMS(g-h-1)= 8.390E-06  nbox=  2
     iter. #   824  RMS(g-h-1)= 8.356E-06  nbox=  3
     iter. #   825  RMS(g-h-1)= 8.326E-06  nbox=  4
     iter. #   826  RMS(g-h-1)= 8.293E-06  nbox=  5
     iter. #   827  RMS(g-h-1)= 8.265E-06  nbox=  6
     iter. #   828  RMS(g-h-1)= 8.236E-06  nbox=  7
     iter. #   829  RMS(g-h-1)= 8.208E-06  nbox=  8
     iter. #   830  RMS(g-h-1)= 8.191E-06  nbox=  9
     iter. #   831  RMS(g-h-1)= 8.169E-06  nbox= 10
     iter. #   832  RMS(g-h-1)= 8.143E-06  nbox= 11
     iter. #   833  RMS(g-h-1)= 8.121E-06  nbox= 12
     iter. #   834  RMS(g-h-1)= 8.099E-06  nbox= 13
     iter. #   835  RMS(g-h-1)= 8.075E-06  nbox= 14
     iter. #   836  RMS(g-h-1)= 8.051E-06  nbox= 15
     iter. #   837  RMS(g-h-1)= 8.031E-06  nbox= 16
     iter. #   838  RMS(g-h-1)= 8.016E-06  nbox= 17
     iter. #   839  RMS(g-h-1)= 8.007E-06  nbox=  2
     iter. #   840  RMS(g-h-1)= 7.990E-06  nbox=  3
     iter. #   841  RMS(g-h-1)= 7.972E-06  nbox=  4
     iter. #   842  RMS(g-h-1)= 7.952E-06  nbox=  5
     iter. #   843  RMS(g-h-1)= 7.933E-06  nbox=  6
     iter. #   844  RMS(g-h-1)= 7.917E-06  nbox=  7
     iter. #   845  RMS(g-h-1)= 7.902E-06  nbox=  8
     iter. #   846  RMS(g-h-1)= 7.887E-06  nbox=  9
     iter. #   847  RMS(g-h-1)= 7.881E-06  nbox= 10
     iter. #   848  RMS(g-h-1)= 7.865E-06  nbox= 11
     iter. #   849  RMS(g-h-1)= 7.851E-06  nbox= 12
     iter. #   850  RMS(g-h-1)= 7.838E-06  nbox= 13
     iter. #   851  RMS(g-h-1)= 7.824E-06  nbox= 14
     iter. #   852  RMS(g-h-1)= 7.811E-06  nbox= 15
     iter. #   853  RMS(g-h-1)= 7.800E-06  nbox= 16
     iter. #   854  RMS(g-h-1)= 7.786E-06  nbox= 17
     iter. #   855  RMS(g-h-1)= 7.785E-06  nbox=  2
     iter. #   856  RMS(g-h-1)= 7.772E-06  nbox=  3
     iter. #   857  RMS(g-h-1)= 7.760E-06  nbox=  4
     iter. #   858  RMS(g-h-1)= 7.750E-06  nbox=  5
     iter. #   859  RMS(g-h-1)= 7.737E-06  nbox=  6
     iter. #   860  RMS(g-h-1)= 7.725E-06  nbox=  7
     iter. #   861  RMS(g-h-1)= 7.713E-06  nbox=  8
     iter. #   862  RMS(g-h-1)= 7.706E-06  nbox=  9
     iter. #   863  RMS(g-h-1)= 7.692E-06  nbox= 10
     iter. #   864  RMS(g-h-1)= 7.679E-06  nbox= 11
     iter. #   865  RMS(g-h-1)= 7.664E-06  nbox= 12
     iter. #   866  RMS(g-h-1)= 7.651E-06  nbox= 13
     iter. #   867  RMS(g-h-1)= 7.638E-06  nbox= 14
     iter. #   868  RMS(g-h-1)= 7.623E-06  nbox= 15
     iter. #   869  RMS(g-h-1)= 7.607E-06  nbox= 16
     iter. #   870  RMS(g-h-1)= 7.597E-06  nbox= 17
     iter. #   871  RMS(g-h-1)= 7.591E-06  nbox=  2
     iter. #   872  RMS(g-h-1)= 7.575E-06  nbox=  3
     iter. #   873  RMS(g-h-1)= 7.559E-06  nbox=  4
     iter. #   874  RMS(g-h-1)= 7.542E-06  nbox=  5
     iter. #   875  RMS(g-h-1)= 7.523E-06  nbox=  6
     iter. #   876  RMS(g-h-1)= 7.506E-06  nbox=  7
     iter. #   877  RMS(g-h-1)= 7.488E-06  nbox=  8
     iter. #   878  RMS(g-h-1)= 7.473E-06  nbox=  9
     iter. #   879  RMS(g-h-1)= 7.461E-06  nbox= 10
     iter. #   880  RMS(g-h-1)= 7.440E-06  nbox= 11
     iter. #   881  RMS(g-h-1)= 7.418E-06  nbox= 12
     iter. #   882  RMS(g-h-1)= 7.398E-06  nbox= 13
     iter. #   883  RMS(g-h-1)= 7.374E-06  nbox= 14
     iter. #   884  RMS(g-h-1)= 7.349E-06  nbox= 15
     iter. #   885  RMS(g-h-1)= 7.325E-06  nbox= 16
     iter. #   886  RMS(g-h-1)= 7.306E-06  nbox= 17
     iter. #   887  RMS(g-h-1)= 7.296E-06  nbox=  2
     iter. #   888  RMS(g-h-1)= 7.273E-06  nbox=  3
     iter. #   889  RMS(g-h-1)= 7.246E-06  nbox=  4
     iter. #   890  RMS(g-h-1)= 7.218E-06  nbox=  5
     iter. #   891  RMS(g-h-1)= 7.188E-06  nbox=  6
     iter. #   892  RMS(g-h-1)= 7.158E-06  nbox=  7
     iter. #   893  RMS(g-h-1)= 7.142E-06  nbox=  8
     iter. #   894  RMS(g-h-1)= 7.117E-06  nbox=  9
     iter. #   895  RMS(g-h-1)= 7.084E-06  nbox= 10
     iter. #   896  RMS(g-h-1)= 7.061E-06  nbox= 11
     iter. #   897  RMS(g-h-1)= 7.030E-06  nbox= 12
     iter. #   898  RMS(g-h-1)= 7.001E-06  nbox= 13
     iter. #   899  RMS(g-h-1)= 6.972E-06  nbox= 14
     iter. #   900  RMS(g-h-1)= 6.937E-06  nbox= 15
     iter. #   901  RMS(g-h-1)= 6.922E-06  nbox= 16
     iter. #   902  RMS(g-h-1)= 6.897E-06  nbox= 17
     iter. #   903  RMS(g-h-1)= 6.886E-06  nbox=  2
     iter. #   904  RMS(g-h-1)= 6.857E-06  nbox=  3
     iter. #   905  RMS(g-h-1)= 6.814E-06  nbox=  4
     iter. #   906  RMS(g-h-1)= 6.779E-06  nbox=  5
     iter. #   907  RMS(g-h-1)= 6.741E-06  nbox=  6
     iter. #   908  RMS(g-h-1)= 6.719E-06  nbox=  7
     iter. #   909  RMS(g-h-1)= 6.695E-06  nbox=  8
     iter. #   910  RMS(g-h-1)= 6.662E-06  nbox=  9
[...]
     atom   19 type  1   force =    -0.00000531   -0.04927603   61.63532773
     atom   20 type  1   force =    -0.20951402   -0.12098668   65.56504768
     atom   21 type  1   force =     0.20951316   -0.12100944   65.56501937
     atom   22 type  1   force =     0.01615409   -0.00930569   62.69778454
     atom   23 type  1   force =    -0.00001653    0.24194037   65.56502577
     atom   24 type  1   force =    -0.01614113   -0.00931418   62.69782370
     atom   25 type  1   force =     0.04263554    0.02463817   61.63527148
     atom   26 type  1   force =    -0.04265503    0.02464032   61.63533366
     atom   27 type  1   force =     0.00001643    0.01866573   62.69780029
     atom   28 type  1   force =    -0.00000237   -0.00001332  203.68393974
     atom   29 type  1   force =    -0.59357854   -0.74889372  202.93095130
     atom   30 type  1   force =     0.59358132   -0.74890414  202.93091071
     atom   31 type  1   force =    -0.94533895   -0.13962194  202.93090462
     atom   32 type  1   force =     0.00001047   -0.00000386  203.58284816
     atom   33 type  1   force =     0.94534622   -0.13963165  202.93093402
     atom   34 type  1   force =    -0.35177174    0.88852409  202.93089645
     atom   35 type  1   force =     0.35175788    0.88852508  202.93095196
     atom   36 type  1   force =     0.00001785    0.00002742  204.42805255
     atom   37 type  2   force =     0.00002308    0.00001397   93.44979694
     atom   38 type  3   force =    -0.00003585   -0.00002349  164.14811237
     The local contribution  to forces
     atom    1 type  1   force =     0.00000317   -0.00003459  217.60719222
     atom    2 type  1   force =     0.02318650   -0.02510855  217.76108423
     atom    3 type  1   force =    -0.02319154   -0.02510685  217.76108001
     atom    4 type  1   force =    -0.01012072    0.03261987  217.76110084
     atom    5 type  1   force =    -0.00000109    0.00000246  217.72427523
     atom    6 type  1   force =     0.01012037    0.03262360  217.76110590
     atom    7 type  1   force =    -0.03330774   -0.00751847  217.76109060
     atom    8 type  1   force =     0.03330987   -0.00751545  217.76110158
     atom    9 type  1   force =    -0.00000436    0.00002822  217.84868398
     atom   10 type  1   force =     0.02234244    0.01291508   77.50418243
     atom   11 type  1   force =    -0.00000728   -0.16365792   77.20022667
     atom   12 type  1   force =    -0.02233414    0.01293508   77.50419001
     atom   13 type  1   force =    -0.14175016    0.08184298   77.20023724
     atom   14 type  1   force =     0.14176281    0.08186071   77.20022673
     atom   15 type  1   force =    -0.00001273    0.09684666   77.81446849
     atom   16 type  1   force =     0.00002324   -0.02582926   77.50414885
     atom   17 type  1   force =     0.08385483   -0.04845829   77.81440782
     atom   18 type  1   force =    -0.08387687   -0.04845427   77.81442016
     atom   19 type  1   force =     0.00000514    0.04468760  -61.65998455
     atom   20 type  1   force =     0.22306370    0.12881003  -65.56785377
     atom   21 type  1   force =    -0.22306277    0.12883275  -65.56782559
     atom   22 type  1   force =    -0.02394838    0.01380575  -62.72646718
     atom   23 type  1   force =     0.00001650   -0.25758616  -65.56783206
     atom   24 type  1   force =     0.02393539    0.01381409  -62.72650654
     atom   25 type  1   force =    -0.03866150   -0.02234415  -61.65992832
     atom   26 type  1   force =     0.03868081   -0.02234636  -61.65999064
     atom   27 type  1   force =    -0.00001634   -0.02766621  -62.72648300
     atom   28 type  1   force =     0.00000166    0.00001332 -203.71693495
     atom   29 type  1   force =     0.57571665    0.71956338 -203.01174571
     atom   30 type  1   force =    -0.57571872    0.71957370 -203.01170373
     atom   31 type  1   force =     0.91100705    0.13881874 -203.01169839
     atom   32 type  1   force =    -0.00001030    0.00000433 -203.60656772
     atom   33 type  1   force =    -0.91101470    0.13882774 -203.01172806
     atom   34 type  1   force =     0.33530189   -0.85838998 -203.01168954
     atom   35 type  1   force =    -0.33528852   -0.85839166 -203.01174663
     atom   36 type  1   force =    -0.00001729   -0.00002771 -204.46207395
     atom   37 type  2   force =    -0.00001989   -0.00001187  -94.31169735
     atom   38 type  3   force =     0.00002671    0.00001749 -161.44122651
     The core correction contribution to forces
     atom    1 type  1   force =     0.00000000   -0.00000008    0.01937146
     atom    2 type  1   force =    -0.00022023    0.00004536    0.01940607
     atom    3 type  1   force =     0.00022022    0.00004536    0.01940607
     atom    4 type  1   force =    -0.00007077   -0.00021345    0.01940610
     atom    5 type  1   force =     0.00000000    0.00000000    0.01895448
     atom    6 type  1   force =     0.00007076   -0.00021345    0.01940611
     atom    7 type  1   force =     0.00014946    0.00016807    0.01940608
     atom    8 type  1   force =    -0.00014946    0.00016808    0.01940608
     atom    9 type  1   force =     0.00000000    0.00000009    0.01978656
     atom   10 type  1   force =     0.00024273    0.00014019    0.00010169
     atom   11 type  1   force =     0.00000000   -0.00063689   -0.00036380
     atom   12 type  1   force =    -0.00024274    0.00014022    0.00010169
     atom   13 type  1   force =    -0.00055161    0.00031847   -0.00036379
     atom   14 type  1   force =     0.00055163    0.00031849   -0.00036377
     atom   15 type  1   force =    -0.00000001    0.00028030    0.00066745
     atom   16 type  1   force =     0.00000005   -0.00028036    0.00010170
     atom   17 type  1   force =     0.00024274   -0.00014023    0.00066745
     atom   18 type  1   force =    -0.00024278   -0.00014022    0.00066744
     atom   19 type  1   force =     0.00000003   -0.00034320   -0.00017380
     atom   20 type  1   force =     0.00157555    0.00090966    0.00097307
     atom   21 type  1   force =    -0.00157554    0.00090971    0.00097310
     atom   22 type  1   force =     0.00007847   -0.00004532    0.00048826
     atom   23 type  1   force =     0.00000002   -0.00181929    0.00097310
     atom   24 type  1   force =    -0.00007849   -0.00004531    0.00048829
     atom   25 type  1   force =     0.00029726    0.00017159   -0.00017382
     atom   26 type  1   force =    -0.00029723    0.00017162   -0.00017382
     atom   27 type  1   force =    -0.00000002    0.00009060    0.00048823
     atom   28 type  1   force =    -0.00000002    0.00000002   -0.01965523
     atom   29 type  1   force =    -0.00086917   -0.00167304   -0.02008180
     atom   30 type  1   force =     0.00086917   -0.00167300   -0.02008179
     atom   31 type  1   force =    -0.00188350    0.00008383   -0.02008184
     atom   32 type  1   force =    -0.00000009   -0.00000005    0.02518608
     atom   33 type  1   force =     0.00188345    0.00008383   -0.02008184
     atom   34 type  1   force =    -0.00101430    0.00158920   -0.02008180
     atom   35 type  1   force =     0.00101433    0.00158918   -0.02008183
     atom   36 type  1   force =    -0.00000004   -0.00000005   -0.02029928
     atom   37 type  2   force =     0.00000009    0.00000006   -0.01774044
     atom   38 type  3   force =    -0.00000008   -0.00000005    0.02262001
     The Hubbard contrib.    to forces
     atom    1 type  1   force =     0.00000000    0.00000000    0.00000000
     atom    2 type  1   force =     0.00000000    0.00000000    0.00000000
     atom    3 type  1   force =     0.00000000    0.00000000    0.00000000
     atom    4 type  1   force =     0.00000000    0.00000000    0.00000000
     atom    5 type  1   force =     0.00000000    0.00000000    0.00000000
     atom    6 type  1   force =     0.00000000    0.00000000    0.00000000
     atom    7 type  1   force =     0.00000000    0.00000000    0.00000000
     atom    8 type  1   force =     0.00000000    0.00000000    0.00000000
     atom    9 type  1   force =     0.00000000    0.00000000    0.00000000
     atom   10 type  1   force =     0.00000000    0.00000000    0.00000000
     atom   11 type  1   force =     0.00000000    0.00000000    0.00000000
     atom   12 type  1   force =     0.00000000    0.00000000    0.00000000
     atom   13 type  1   force =     0.00000000    0.00000000    0.00000000
     atom   14 type  1   force =     0.00000000    0.00000000    0.00000000
     atom   15 type  1   force =     0.00000000    0.00000000    0.00000000
     atom   16 type  1   force =     0.00000000    0.00000000    0.00000000
     atom   17 type  1   force =     0.00000000    0.00000000    0.00000000
     atom   18 type  1   force =     0.00000000    0.00000000    0.00000000
     atom   19 type  1   force =     0.00000000    0.00000000    0.00000000
     atom   20 type  1   force =     0.00000000    0.00000000    0.00000000
     atom   21 type  1   force =     0.00000000    0.00000000    0.00000000
     atom   22 type  1   force =     0.00000000    0.00000000    0.00000000
     atom   23 type  1   force =     0.00000000    0.00000000    0.00000000
     atom   24 type  1   force =     0.00000000    0.00000000    0.00000000
     atom   25 type  1   force =     0.00000000    0.00000000    0.00000000
     atom   26 type  1   force =     0.00000000    0.00000000    0.00000000
     atom   27 type  1   force =     0.00000000    0.00000000    0.00000000
     atom   28 type  1   force =     0.00000000    0.00000000    0.00000000
     atom   29 type  1   force =     0.00000000    0.00000000    0.00000000
     atom   30 type  1   force =     0.00000000    0.00000000    0.00000000
     atom   31 type  1   force =     0.00000000    0.00000000    0.00000000
     atom   32 type  1   force =     0.00000000    0.00000000    0.00000000
     atom   33 type  1   force =     0.00000000    0.00000000    0.00000000
     atom   34 type  1   force =     0.00000000    0.00000000    0.00000000
     atom   35 type  1   force =     0.00000000    0.00000000    0.00000000
     atom   36 type  1   force =     0.00000000    0.00000000    0.00000000
     atom   37 type  2   force =     0.00000000    0.00000000    0.00000000
     atom   38 type  3   force =     0.00000000    0.00000000    0.00000000
     The SCF correction term to forces
     atom    1 type  1   force =     0.00000000    0.00000000    0.00000000
     atom    2 type  1   force =     0.00000000    0.00000000    0.00000000
     atom    3 type  1   force =     0.00000000    0.00000000    0.00000000
     atom    4 type  1   force =     0.00000000    0.00000000    0.00000000
     atom    5 type  1   force =     0.00000000    0.00000000    0.00000000
     atom    6 type  1   force =     0.00000000    0.00000000    0.00000000
     atom    7 type  1   force =     0.00000000    0.00000000    0.00000000
     atom    8 type  1   force =     0.00000000    0.00000000    0.00000000
     atom    9 type  1   force =     0.00000000    0.00000000    0.00000000
     atom   10 type  1   force =     0.00000119    0.00000042   -0.00000111
     atom   11 type  1   force =    -0.00000021   -0.00000006   -0.00000109
     atom   12 type  1   force =    -0.00000092    0.00000026   -0.00000113
     atom   13 type  1   force =     0.00000011   -0.00000062   -0.00000119
     atom   14 type  1   force =    -0.00000030   -0.00000053   -0.00000121
     atom   15 type  1   force =     0.00000019    0.00000050   -0.00000141
     atom   16 type  1   force =    -0.00000006   -0.00000045   -0.00000111
     atom   17 type  1   force =     0.00000081    0.00000042   -0.00000124
     atom   18 type  1   force =    -0.00000084    0.00000021   -0.00000130
     atom   19 type  1   force =     0.00000024    0.00000014   -0.00000184
     atom   20 type  1   force =     0.00000038   -0.00000038   -0.00000198
     atom   21 type  1   force =    -0.00000058   -0.00000051   -0.00000194
     atom   22 type  1   force =    -0.00000017    0.00000021   -0.00000195
     atom   23 type  1   force =    -0.00000020   -0.00000045   -0.00000182
     atom   24 type  1   force =     0.00000040    0.00000036   -0.00000193
     atom   25 type  1   force =    -0.00000075    0.00000005   -0.00000169
     atom   26 type  1   force =     0.00000082    0.00000027   -0.00000179
     atom   27 type  1   force =    -0.00000003    0.00000023   -0.00000203
     atom   28 type  1   force =     0.00000004    0.00000001   -0.00000156
     atom   29 type  1   force =     0.00000059   -0.00000001   -0.00000213
     atom   30 type  1   force =    -0.00000062   -0.00000026   -0.00000202
     atom   31 type  1   force =     0.00000023    0.00000008   -0.00000192
     atom   32 type  1   force =    -0.00000009   -0.00000045   -0.00000209
     atom   33 type  1   force =     0.00000000    0.00000007   -0.00000183
     atom   34 type  1   force =    -0.00000054   -0.00000004   -0.00000183
     atom   35 type  1   force =     0.00000038    0.00000011   -0.00000178
     atom   36 type  1   force =     0.00000013    0.00000048   -0.00000164
     atom   37 type  2   force =    -0.00000002   -0.00000006   -0.00000054
     atom   38 type  3   force =    -0.00000001   -0.00000004   -0.00000078

     3D-RISM Solvation contribution to forces:
     atom    1 type  1   force =     0.00000001    0.00000000    0.00001101
     atom    2 type  1   force =     0.00000985    0.00002008    0.00003119
     atom    3 type  1   force =    -0.00000985    0.00002010    0.00003119
     atom    4 type  1   force =     0.00002231   -0.00000151    0.00003119
     atom    5 type  1   force =     0.00000004    0.00000002    0.00007519
     atom    6 type  1   force =    -0.00002233   -0.00000149    0.00003128
     atom    7 type  1   force =     0.00001249   -0.00001858    0.00003119
     atom    8 type  1   force =    -0.00001245   -0.00001859    0.00003128
     atom    9 type  1   force =    -0.00000003   -0.00000002    0.00000584
     atom   10 type  1   force =     0.00011894    0.00006866    0.00005149
     atom   11 type  1   force =     0.00000002    0.00016891    0.00027568
     atom   12 type  1   force =    -0.00011888    0.00006875    0.00005149
     atom   13 type  1   force =     0.00014629   -0.00008443    0.00027568
     atom   14 type  1   force =    -0.00014617   -0.00008438    0.00027571
     atom   15 type  1   force =    -0.00000007   -0.00004803   -0.00002746
     atom   16 type  1   force =     0.00000011   -0.00013733    0.00005150
     atom   17 type  1   force =    -0.00004163    0.00002396   -0.00002745
     atom   18 type  1   force =     0.00004156    0.00002399   -0.00002749
     atom   19 type  1   force =     0.00000009    0.00023081   -0.00029103
     atom   20 type  1   force =     0.00083442    0.00048173    0.00180120
     atom   21 type  1   force =    -0.00083434    0.00048189    0.00180122
     atom   22 type  1   force =     0.00101703   -0.00058726    0.00001746
     atom   23 type  1   force =     0.00000018   -0.00096346    0.00180126
     atom   24 type  1   force =    -0.00101707   -0.00058716    0.00001775
     atom   25 type  1   force =    -0.00019969   -0.00011532   -0.00029124
     atom   26 type  1   force =     0.00019996   -0.00011536   -0.00029095
     atom   27 type  1   force =    -0.00000010    0.00117440    0.00001750
     atom   28 type  1   force =     0.00000062    0.00000001   -0.01605273
     atom   29 type  1   force =     0.00454122    0.00897805    0.00330989
     atom   30 type  1   force =    -0.00454182    0.00897875    0.00330892
     atom   31 type  1   force =     0.01004614   -0.00055628    0.00330950
     atom   32 type  1   force =     0.00000039    0.00000030    0.00583038
     atom   33 type  1   force =    -0.01004652   -0.00055560    0.00330997
     atom   34 type  1   force =     0.00550518   -0.00842262    0.00330903
     atom   35 type  1   force =    -0.00550446   -0.00842243    0.00331048
     atom   36 type  1   force =    -0.00000073   -0.00000016   -0.01799203
     atom   37 type  2   force =     0.00000018    0.00000012   -0.02409711
     atom   38 type  3   force =     0.00000015    0.00000003   -0.08609475

     Total force =     0.051211     Total SCF correction =     0.000009

     Total 3D-RISM Solvation Force =     0.096431

     Writing output data file Cu-vib.save
 
     init_run     :    404.06s CPU    204.83s WALL (       1 calls)
     electrons    :   6860.61s CPU   3498.67s WALL (       1 calls)
     forces       :     25.74s CPU     13.29s WALL (       1 calls)

     Called by init_run:
     wfcinit      :     58.24s CPU     30.42s WALL (       1 calls)
     wfcinit:atom :      1.06s CPU      0.02s WALL (      34 calls)
     wfcinit:wfcr :     56.82s CPU     30.08s WALL (      34 calls)
     potinit      :    336.16s CPU    169.74s WALL (       1 calls)

     Called by electrons:
     c_bands      :   3756.21s CPU   1932.73s WALL (      32 calls)
     sum_band     :    516.63s CPU    265.11s WALL (      32 calls)
     v_of_rho     :     41.37s CPU     20.87s WALL (      32 calls)
     v_h          :      1.66s CPU      0.51s WALL (      64 calls)
     v_xc         :     41.60s CPU     21.22s WALL (      33 calls)
     newd         :      1.16s CPU      1.16s WALL (      32 calls)
     PAW_pot      :      6.56s CPU      2.64s WALL (      32 calls)
     mix_rho      :      0.53s CPU      0.53s WALL (      32 calls)

     Called by c_bands:
     init_us_2    :      2.52s CPU      1.44s WALL (    2244 calls)
     crmmdiagg    :   2434.77s CPU   1241.86s WALL (    1088 calls)
     wfcrot       :   1298.84s CPU    680.33s WALL (    1054 calls)
     gsorth       :     76.45s CPU     38.22s WALL (    1088 calls)

     Called by sum_band:
     sum_band:bec :      2.21s CPU      1.19s WALL (    1088 calls)
     addusdens    :      3.21s CPU      1.15s WALL (      32 calls)

     Called by *rmmdiagg:
     h_psi        :   3389.49s CPU   1720.17s WALL (    9318 calls)
     s_psi        :     46.27s CPU     25.78s WALL (    9318 calls)
     cdiaghg      :    129.78s CPU     76.36s WALL (    1054 calls)
     cdiaghg:chol :      5.78s CPU      2.66s WALL (    1054 calls)
     cdiaghg:inve :      2.67s CPU      1.73s WALL (    1054 calls)
     cdiaghg:para :      1.70s CPU      1.71s WALL (    2108 calls)

     Called by h_psi:
     h_psi:pot    :   3387.64s CPU   1718.83s WALL (    9318 calls)
     h_psi:calbec :    118.76s CPU     64.71s WALL (    9318 calls)
     vloc_psi     :   3218.79s CPU   1627.43s WALL (    9318 calls)
     add_vuspsi   :     49.89s CPU     26.53s WALL (    9318 calls)

     General routines
     calbec       :    155.55s CPU     83.14s WALL (   10542 calls)
     fft          :     27.56s CPU     15.03s WALL (    2270 calls)
     ffts         :      0.15s CPU      0.15s WALL (      64 calls)
     fftw         :   3625.98s CPU   1831.15s WALL ( 1883300 calls)
     fftc         :      0.14s CPU      0.14s WALL (      64 calls)
     interpolate  :      2.87s CPU      0.57s WALL (      64 calls)
 
     Parallel routines
     fft_scatter  :   2478.49s CPU   1391.59s WALL ( 1983848 calls)

     PAW routines
     PAW_pot      :      6.56s CPU      2.64s WALL (      32 calls)

     RISM routines
     1DRISM_pre   :     28.73s CPU     14.32s WALL (       1 calls)
     1DRISM_run   :      0.75s CPU      1.18s WALL (       1 calls)
     3DRISM_pre   :     10.66s CPU      6.31s WALL (       1 calls)
     3DRISM_run   :   2859.25s CPU   1436.54s WALL (      32 calls)
     3DRISM_for   :      4.97s CPU      2.89s WALL (       1 calls)
     3DRISM_vsol  :      0.20s CPU      0.20s WALL (      32 calls)
 
     PWSCF        :     2h 4m CPU        1h 3m WALL

 
   This run was terminated on:  22:21:34  10Feb2026            

=------------------------------------------------------------------------------=
   JOB DONE.
=------------------------------------------------------------------------------=
