
     Program PWSCF v.6.1 starts on 10Feb2026 at 15:49:35 

     This program is part of the open-source Quantum ESPRESSO suite
     for quantum simulation of materials; please cite
         "P. Giannozzi et al., J. Phys.:Condens. Matter 21 395502 (2009);
          URL http://www.quantum-espresso.org", 
     in publications or presentations arising from this work. More details at
     http://www.quantum-espresso.org/quote

     Parallel version (MPI & OpenMP), running on     480 processor cores
     Number of MPI processes:               240
     Threads/MPI process:                     2
     R & G space division:  proc/nbgrp/npool/nimage =     240
     Reading input from espresso.pwi

     Current dimensions of program PWSCF are:
     Max number of different atomic species (ntypx) = 10
     Max number of k-points (npk) =  40000
     Max angular momentum in pseudopotentials (lmaxx) =  3

     IMPORTANT: XC functional enforced from input :
     Exchange-correlation      = VDW-DF2 ( 1  4 13  0 2 0)
     Any further DFT definition will be discarded
     Please, verify this is what you really want

               file Cu.pbe-dn-kjpaw_psl.1.0.0.UPF: wavefunction(s)  4S 3D renormalized
               file C.pbe-n-kjpaw_psl.1.0.0.UPF: wavefunction(s)  2S 2P renormalized
               file O.pbe-n-kjpaw_psl.1.0.0.UPF: wavefunction(s)  2S 2P renormalized
     Message from routine iosys_1drism:
     default density from MOL file(H2O.tip5p.MOL) is used

     Subspace diagonalization in iterative solution of the eigenvalue problem:
     one sub-group per band group will be used
     ELPA distributed-memory algorithm (size of sub-group: 10* 10 procs)


     Molecule # 1 for H2O read from file:
     /work/gf93/f93007/QE/pseudo/H2O.tip5p.MOL
     Density:
         0.72794769E+02 cell^-1
         0.49533750E-02 bohr^-3
         0.55506881E+02 mol/L
         0.99997200E+00 g/cm^3
     Permittivity:
        78.355300
     Number of atoms:   5
     Atoms:
       #  atom      X (angs)      Y (angs)      Z (angs)      Q (e)         E (kcal/mol)  S (angs)
       1  O/h2o     0.00000000    0.00000000    0.00000000    0.00000000    0.16000000    3.12000000
       2  H/h2o     0.75695000    0.58588000    0.00000000    0.24100000    0.04600000    1.00000000
       3  H/h2o    -0.75695000    0.58588000    0.00000000    0.24100000    0.04600000    1.00000000
       4  L/h2o     0.00000000   -0.40415000    0.57154000   -0.24100000    0.04600000    1.80000000
       5  L/h2o     0.00000000   -0.40415000   -0.57154000   -0.24100000    0.04600000    1.80000000


     Molecule # 2 for K+ read from file:
     /work/gf93/f93007/QE/pseudo/K+.oplsaa.MOL
     Density:
         0.13114549E+01 cell^-1
         0.89238936E-04 bohr^-3
         0.10000000E+01 mol/L
         0.39098300E-01 g/cm^3
     Number of atoms:   1
     Atoms:
       #  atom      X (angs)      Y (angs)      Z (angs)      Q (e)         E (kcal/mol)  S (angs)
       1  K         0.00000000    0.00000000    0.00000000    1.00000000    0.00032800    4.93462800


     Molecule # 3 for OH- read from file:
     /work/gf93/f93007/QE/pseudo/OH-.oplsaa.MOL
     Density:
         0.13114549E+01 cell^-1
         0.89238936E-04 bohr^-3
         0.10000000E+01 mol/L
         0.17007340E-01 g/cm^3
     Number of atoms:   2
     Atoms:
       #  atom      X (angs)      Y (angs)      Z (angs)      Q (e)         E (kcal/mol)  S (angs)
       1  O/oh      0.00000000    0.00000000    0.00000000   -1.30000000    0.25000000    3.20000000
       2  H/oh      0.95300000    0.00000000    0.00000000    0.30000000    0.04600000    1.00000000


     Number of total sites:   8
     Index site -> solvent: 
       1  1  1  1  1  2  3  3
     Index site -> atom (in a solvent): 
       1  2  3  4  5  1  1  2


     Number of unique sites:   6
     Multiplicity of unique site: 
       1  2  2  1  1  1
     Index unique site -> site: 
       1:  1
       2:  2  3
       3:  4  5
       4:  6
       5:  7
       6:  8


     1D-RISM info
     ------------
     closure equation        =           KH
     temperature             =     300.0000  kelvin
     coulomb smearing radius =       2.0000  bohr
     number of solvent sites =            8
     nv * (nv + 1) / 2       =           36
     number of grids         =         8345
     maximum of R-space      =     999.8802  bohr
     maximum of G-space      =      26.2150  bohr^-1
     #R-grids in local       =           66
     #G-grids in local       =           66
     number of iterations    =       100000
     convergence threshold   =      1.0E-08
     Gaussian width of bonds =       0.2530  bohr
     size of MDIIS           =           20
     step of MDIIS           =       0.1000
     number of processes     =          128


     Radial FFT:
     number of radial grids   =         8345
     number of FFT grids      =        16689
     good number of FFT grids =           -1
     R-space grids:
       0.00000000E+00  0.11983223E+00  0.23966447E+00  0.35949670E+00  0.47932894E+00
       0.59916117E+00  0.71899341E+00  0.83882564E+00  0.95865788E+00  0.10784901E+01
       ..............  ..............  ..............  ..............  ..............
       0.99880168E+03  0.99892151E+03  0.99904134E+03  0.99916117E+03  0.99928101E+03
       0.99940084E+03  0.99952067E+03  0.99964050E+03  0.99976034E+03  0.99988017E+03
     G-space grids:
       0.00000000E+00  0.31417809E-02  0.62835618E-02  0.94253427E-02  0.12567124E-01
       0.15708904E-01  0.18850685E-01  0.21992466E-01  0.25134247E-01  0.28276028E-01
       ..............  ..............  ..............  ..............  ..............
       0.26186744E+02  0.26189886E+02  0.26193027E+02  0.26196169E+02  0.26199311E+02
       0.26202453E+02  0.26205594E+02  0.26208736E+02  0.26211878E+02  0.26215020E+02


     MPI for site:
     number of site groups     =          128
     #procs in a site group    =            1
     this proc in a site group =            0
     the root in a site group  =            0
     this site group           =            0
     inter-site group comm.    =           20
     intra-site group comm.    =            2
     total number of sites     =           36
     starting index of sites   =            1
     ending index of sites     =            1


     MPI for task:
     #procs in a task group    =          128
     this proc in a task group =            0
     the root in a task group  =            0
     task group comm.          =           20
     total number of vectors   =         8345
     starting index of vectors =            1
     ending index of vectors   =           66
     lengths of vectors        = 
        66   66   66   66   66   66   66   66   66   66
        66   66   66   66   66   66   66   66   66   66
        66   66   66   66   66   65   65   65   65   65
        65   65   65   65   65   65   65   65   65   65
        65   65   65   65   65   65   65   65   65   65
        65   65   65   65   65   65   65   65   65   65
        65   65   65   65   65   65   65   65   65   65
        65   65   65   65   65   65   65   65   65   65
        65   65   65   65   65   65   65   65   65   65
        65   65   65   65   65   65   65   65   65   65
        65   65   65   65   65   65   65   65   65   65
        65   65   65   65   65   65   65   65   65   65
        65   65   65   65   65   65   65   65
     displacement of vectors   = 
         0   66  132  198  264  330  396  462  528  594
       660  726  792  858  924  990 1056 1122 1188 1254
      1320 1386 1452 1518 1584 1650 1715 1780 1845 1910
      1975 2040 2105 2170 2235 2300 2365 2430 2495 2560
      2625 2690 2755 2820 2885 2950 3015 3080 3145 3210
      3275 3340 3405 3470 3535 3600 3665 3730 3795 3860
      3925 3990 4055 4120 4185 4250 4315 4380 4445 4510
      4575 4640 4705 4770 4835 4900 4965 5030 5095 5160
      5225 5290 5355 5420 5485 5550 5615 5680 5745 5810
      5875 5940 6005 6070 6135 6200 6265 6330 6395 6460
      6525 6590 6655 6720 6785 6850 6915 6980 7045 7110
      7175 7240 7305 7370 7435 7500 7565 7630 7695 7760
      7825 7890 7955 8020 8085 8150 8215 8280


     Correlation function is read from file


     1D-RISM Calculation

     iter. #     1  RMS(g-h-1)= 9.995E-09  nbox=  0  T=  300.00K

     End of 1D-RISM calculation


     convergence has been achieved in     1 iterations


     Chemical potential of solvation

     H2O        H2O        Closure      0.106068E+01 kcal/mol
                           GaussFluct  -0.737993E+01 kcal/mol

                K+         Closure     -0.288345E+00 kcal/mol
                           GaussFluct  -0.358438E+00 kcal/mol

                OH-        Closure     -0.764259E+00 kcal/mol
                           GaussFluct  -0.855991E+00 kcal/mol

                Total      Closure      0.808077E-02 kcal/mol
                           GaussFluct  -0.859435E+01 kcal/mol

     K+         H2O        Closure     -0.160051E+02 kcal/mol
                           GaussFluct  -0.198958E+02 kcal/mol

                K+         Closure      0.351561E+06 kcal/mol
                           GaussFluct   0.351561E+06 kcal/mol

                OH-        Closure     -0.351612E+06 kcal/mol
                           GaussFluct  -0.351612E+06 kcal/mol

                Total      Closure     -0.668098E+02 kcal/mol
                           GaussFluct  -0.707592E+02 kcal/mol

     OH-        H2O        Closure     -0.424217E+02 kcal/mol
                           GaussFluct  -0.475134E+02 kcal/mol

                K+         Closure     -0.351612E+06 kcal/mol
                           GaussFluct  -0.351612E+06 kcal/mol

                OH-        Closure      0.351561E+06 kcal/mol
                           GaussFluct   0.351561E+06 kcal/mol

                Total      Closure     -0.934347E+02 kcal/mol
                           GaussFluct  -0.986502E+02 kcal/mol

 
     Parallelization info
     --------------------
     sticks:   dense  smooth     PW     G-vecs:    dense   smooth      PW
     Min          40      16      4                16136     4064     568
     Max          41      17      5                16171     4100     615
     Sum        9661    3865   1057              3875677   980529  140539
 

     Title: 
     Cu-vib                                                                     


     bravais-lattice index     =            0
     lattice parameter (alat)  =      14.9832  a.u.
     unit-cell volume          =   14695.9939 (a.u.)^3
     number of atoms/cell      =           38
     number of atomic types    =            3
     number of electrons       =       406.00
     number of Kohn-Sham states=          244
     kinetic-energy cutoff     =      62.4738  Ry
     charge density cutoff     =     624.7385  Ry
     convergence threshold     =      7.3E-12
     mixing beta               =       0.3333
     number of iterations used =           12  plain     mixing
     Exchange-correlation      = VDW-DF2 ( 1  4 13  0 2 0)

     Effective Screening Medium Method
     =================================
     Boundary Conditions: Vacuum-Slab-Vacuum
     total charge in unit cell        =   0.0000
     grid points for fit at edges     =        4 
 

     celldm(1)=  14.983209  celldm(2)=   0.000000  celldm(3)=   0.000000
     celldm(4)=   0.000000  celldm(5)=   0.000000  celldm(6)=   0.000000

     crystal axes: (cart. coord. in units of alat)
               a(1) = (   1.000000   0.000000   0.000000 )  
               a(2) = (   0.500000   0.866025   0.000000 )  
               a(3) = (   0.000000   0.000000   5.044917 )  

     reciprocal axes: (cart. coord. in units 2 pi/alat)
               b(1) = (  1.000000 -0.577351  0.000000 )  
               b(2) = (  0.000000  1.154701  0.000000 )  
               b(3) = (  0.000000  0.000000  0.198219 )  


     PseudoPot. # 1 for Cu read from file:
     /work/gf93/f93007/QE/pseudo/Cu.pbe-dn-kjpaw_psl.1.0.0.UPF
     MD5 check sum: 67c40f9e1593dc2d139023e70404cc2a
     Pseudo is Projector augmented-wave + core cor, Zval = 11.0
     Generated using "atomic" code by A. Dal Corso  v.6.1 svn rev. 13369
     Shape of augmentation charge: PSQ
     Using radial grid of 1199 points,  6 beta functions with: 
                l(1) =   0
                l(2) =   0
                l(3) =   1
                l(4) =   1
                l(5) =   2
                l(6) =   2
     Q(r) pseudized with 0 coefficients 


     PseudoPot. # 2 for  C read from file:
     /work/gf93/f93007/QE/pseudo/C.pbe-n-kjpaw_psl.1.0.0.UPF
     MD5 check sum: 92a742b3ac0ce1af44b5aa3f9352ca21
     Pseudo is Projector augmented-wave + core cor, Zval =  4.0
     Generated using "atomic" code by A. Dal Corso  v.6.1 svn rev. 13369
     Shape of augmentation charge: PSQ
     Using radial grid of 1073 points,  4 beta functions with: 
                l(1) =   0
                l(2) =   0
                l(3) =   1
                l(4) =   1
     Q(r) pseudized with 0 coefficients 


     PseudoPot. # 3 for  O read from file:
     /work/gf93/f93007/QE/pseudo/O.pbe-n-kjpaw_psl.1.0.0.UPF
     MD5 check sum: c61d840054b6bba219e553541e327118
     Pseudo is Projector augmented-wave + core cor, Zval =  6.0
     Generated using "atomic" code by A. Dal Corso  v.6.1 svn rev. 13369
     Shape of augmentation charge: PSQ
     Using radial grid of 1095 points,  4 beta functions with: 
                l(1) =   0
                l(2) =   0
                l(3) =   1
                l(4) =   1
     Q(r) pseudized with 0 coefficients 


     vdW kernel table read from file vdW_kernel_table
     MD5 check sum: 6d69797d2e858e93e031fb7d16d30e50

     atomic species   valence    mass     pseudopotential
        Cu            11.00    63.54600     Cu( 1.00)
        C              4.00    12.01100      C( 1.00)
        O              6.00    15.99900      O( 1.00)

     No symmetry found


                                    s                        frac. trans.

      isym =  1     identity                                     

 cryst.   s( 1) = (     1          0          0      )
                  (     0          1          0      )
                  (     0          0          1      )

 cart.    s( 1) = (  1.0000000  0.0000000  0.0000000 )
                  (  0.0000000  1.0000000  0.0000000 )
                  (  0.0000000  0.0000000  1.0000000 )


   Cartesian axes

     site n.     atom                  positions (alat units)
         1           Cu  tau(   1) = (   0.0000000   0.0000000  -0.8248888  )
         2           Cu  tau(   2) = (   0.3333333   0.0000000  -0.8248888  )
         3           Cu  tau(   3) = (   0.6666667   0.0000000  -0.8248888  )
         4           Cu  tau(   4) = (   0.1666667   0.2886751  -0.8248888  )
         5           Cu  tau(   5) = (   0.5000000   0.2886751  -0.8248888  )
         6           Cu  tau(   6) = (   0.8333333   0.2886751  -0.8248888  )
         7           Cu  tau(   7) = (   0.3333333   0.5773503  -0.8248888  )
         8           Cu  tau(   8) = (   0.6666667   0.5773503  -0.8248888  )
         9           Cu  tau(   9) = (   1.0000000   0.5773503  -0.8248888  )
        10           Cu  tau(  10) = (   0.1679527   0.0969677  -0.5550278  )
        11           Cu  tau(  11) = (   0.5000001   0.0963555  -0.5546924  )
        12           Cu  tau(  12) = (   0.8320475   0.0969677  -0.5550278  )
        13           Cu  tau(  13) = (   0.3334463   0.3848350  -0.5546924  )
        14           Cu  tau(  14) = (   0.6665540   0.3848351  -0.5546924  )
        15           Cu  tau(  15) = (   1.0000000   0.3851225  -0.5554971  )
        16           Cu  tau(  16) = (   0.5000002   0.6720902  -0.5550277  )
        17           Cu  tau(  17) = (   0.8335259   0.6734639  -0.5554970  )
        18           Cu  tau(  18) = (   1.1664742   0.6734639  -0.5554970  )
        19           Cu  tau(  19) = (   0.0000002   0.1919045  -0.2895402  )
        20           Cu  tau(  20) = (   0.3359748   0.1939752  -0.2811846  )
        21           Cu  tau(  21) = (   0.6640256   0.1939752  -0.2811846  )
        22           Cu  tau(  22) = (   0.1667941   0.4810516  -0.2872685  )
        23           Cu  tau(  23) = (   0.5000002   0.4780753  -0.2811846  )
        24           Cu  tau(  24) = (   0.8332061   0.4810517  -0.2872684  )
        25           Cu  tau(  25) = (   0.3338062   0.7700731  -0.2895404  )
        26           Cu  tau(  26) = (   0.6661942   0.7700731  -0.2895403  )
        27           Cu  tau(  27) = (   1.0000001   0.7699472  -0.2872685  )
        28           Cu  tau(  28) = (   0.0000000   0.0000002  -0.0207473  )
        29           Cu  tau(  29) = (   0.3317716  -0.0034666  -0.0198287  )
        30           Cu  tau(  30) = (   0.6682285  -0.0034665  -0.0198288  )
        31           Cu  tau(  31) = (   0.1628835   0.2890560  -0.0198289  )
        32           Cu  tau(  32) = (   0.5000001   0.2886752   0.0000000  )
        33           Cu  tau(  33) = (   0.8371164   0.2890560  -0.0198289  )
        34           Cu  tau(  34) = (   0.3311120   0.5804359  -0.0198289  )
        35           Cu  tau(  35) = (   0.6688881   0.5804359  -0.0198288  )
        36           Cu  tau(  36) = (   1.0000000   0.5773501  -0.0191733  )
        37           C   tau(  37) = (   0.4999994   0.2886747   0.2397149  )
        38           O   tau(  38) = (   0.4987377   0.2886744   0.3848034  )

   Crystallographic axes

     site n.     atom                  positions (cryst. coord.)
         1           Cu  tau(   1) = (  0.0000000  0.0000000 -0.1635089  )
         2           Cu  tau(   2) = (  0.3333333  0.0000000 -0.1635089  )
         3           Cu  tau(   3) = (  0.6666667  0.0000000 -0.1635089  )
         4           Cu  tau(   4) = ( -0.0000001  0.3333335 -0.1635089  )
         5           Cu  tau(   5) = (  0.3333333  0.3333335 -0.1635089  )
         6           Cu  tau(   6) = (  0.6666666  0.3333335 -0.1635089  )
         7           Cu  tau(   7) = ( -0.0000002  0.6666670 -0.1635089  )
         8           Cu  tau(   8) = (  0.3333332  0.6666670 -0.1635089  )
         9           Cu  tau(   9) = (  0.6666665  0.6666670 -0.1635089  )
        10           Cu  tau(  10) = (  0.1119684  0.1119687 -0.1100172  )
        11           Cu  tau(  11) = (  0.4443691  0.1112618 -0.1099508  )
        12           Cu  tau(  12) = (  0.7760631  0.1119687 -0.1100172  )
        13           Cu  tau(  13) = (  0.1112615  0.4443694 -0.1099508  )
        14           Cu  tau(  14) = (  0.4443692  0.4443695 -0.1099507  )
        15           Cu  tau(  15) = (  0.7776494  0.4447013 -0.1101102  )
        16           Cu  tau(  16) = (  0.1119685  0.7760633 -0.1100172  )
        17           Cu  tau(  17) = (  0.4447012  0.7776495 -0.1101102  )
        18           Cu  tau(  18) = (  0.7776494  0.7776495 -0.1101102  )
        19           Cu  tau(  19) = ( -0.1107960  0.2215923 -0.0573925  )
        20           Cu  tau(  20) = (  0.2239831  0.2239834 -0.0557362  )
        21           Cu  tau(  21) = (  0.5520338  0.2239834 -0.0557362  )
        22           Cu  tau(  22) = ( -0.1109413  0.5554709 -0.0569422  )
        23           Cu  tau(  23) = (  0.2239831  0.5520341 -0.0557362  )
        24           Cu  tau(  24) = (  0.5554707  0.5554709 -0.0569421  )
        25           Cu  tau(  25) = ( -0.1107959  0.8892042 -0.0573925  )
        26           Cu  tau(  26) = (  0.2215921  0.8892042 -0.0573925  )
        27           Cu  tau(  27) = (  0.5554707  0.8890589 -0.0569422  )
        28           Cu  tau(  28) = ( -0.0000001  0.0000002 -0.0041125  )
        29           Cu  tau(  29) = (  0.3337730 -0.0040029 -0.0039304  )
        30           Cu  tau(  30) = (  0.6702299 -0.0040028 -0.0039305  )
        31           Cu  tau(  31) = ( -0.0040031  0.3337733 -0.0039305  )
        32           Cu  tau(  32) = (  0.3333333  0.3333336  0.0000000  )
        33           Cu  tau(  33) = (  0.6702298  0.3337733 -0.0039305  )
        34           Cu  tau(  34) = ( -0.0040030  0.6702300 -0.0039305  )
        35           Cu  tau(  35) = (  0.3337731  0.6702300 -0.0039305  )
        36           Cu  tau(  36) = (  0.6666666  0.6666667 -0.0038005  )
        37           C   tau(  37) = (  0.3333329  0.3333330  0.0475161  )
        38           O   tau(  38) = (  0.3320714  0.3333326  0.0762755  )

     number of k points=    34  Marzari-Vanderbilt smearing, width (Ry)=  0.0073
                       cart. coord. in units 2pi/alat
        k(    1) = (   0.0000000   0.0000000   0.0000000), wk =   0.0312500
        k(    2) = (   0.0000000   0.1443376   0.0000000), wk =   0.0625000
        k(    3) = (   0.0000000   0.2886753   0.0000000), wk =   0.0625000
        k(    4) = (   0.0000000   0.4330129   0.0000000), wk =   0.0625000
        k(    5) = (   0.0000000  -0.5773505   0.0000000), wk =   0.0312500
        k(    6) = (   0.1250000  -0.0721688   0.0000000), wk =   0.0625000
        k(    7) = (   0.1250000   0.0721688   0.0000000), wk =   0.0625000
        k(    8) = (   0.1250000   0.2165065   0.0000000), wk =   0.0625000
        k(    9) = (   0.1250000   0.3608441   0.0000000), wk =   0.0625000
        k(   10) = (   0.1250000  -0.6495194   0.0000000), wk =   0.0625000
        k(   11) = (   0.1250000  -0.5051817   0.0000000), wk =   0.0625000
        k(   12) = (   0.1250000  -0.3608441   0.0000000), wk =   0.0625000
        k(   13) = (   0.1250000  -0.2165065   0.0000000), wk =   0.0625000
        k(   14) = (   0.2500000  -0.1443376   0.0000000), wk =   0.0625000
        k(   15) = (   0.2500000   0.0000000   0.0000000), wk =   0.0625000
        k(   16) = (   0.2500000   0.1443376   0.0000000), wk =   0.0625000
        k(   17) = (   0.2500000   0.2886753   0.0000000), wk =   0.0625000
        k(   18) = (   0.2500000  -0.7216882   0.0000000), wk =   0.0625000
        k(   19) = (   0.2500000  -0.5773505   0.0000000), wk =   0.0625000
        k(   20) = (   0.2500000  -0.4330129   0.0000000), wk =   0.0625000
        k(   21) = (   0.2500000  -0.2886753   0.0000000), wk =   0.0625000
        k(   22) = (   0.3750000  -0.2165065   0.0000000), wk =   0.0625000
        k(   23) = (   0.3750000  -0.0721688   0.0000000), wk =   0.0625000
        k(   24) = (   0.3750000   0.0721688   0.0000000), wk =   0.0625000
        k(   25) = (   0.3750000   0.2165065   0.0000000), wk =   0.0625000
        k(   26) = (   0.3750000  -0.7938570   0.0000000), wk =   0.0625000
        k(   27) = (   0.3750000  -0.6495194   0.0000000), wk =   0.0625000
        k(   28) = (   0.3750000  -0.5051817   0.0000000), wk =   0.0625000
        k(   29) = (   0.3750000  -0.3608441   0.0000000), wk =   0.0625000
        k(   30) = (  -0.5000000   0.2886753   0.0000000), wk =   0.0312500
        k(   31) = (  -0.5000000   0.4330129   0.0000000), wk =   0.0625000
        k(   32) = (  -0.5000000   0.5773505   0.0000000), wk =   0.0625000
        k(   33) = (  -0.5000000   0.7216882   0.0000000), wk =   0.0625000
        k(   34) = (  -0.5000000  -0.2886753   0.0000000), wk =   0.0312500

                       cryst. coord.
        k(    1) = (   0.0000000   0.0000000   0.0000000), wk =   0.0312500
        k(    2) = (   0.0000000   0.1250000   0.0000000), wk =   0.0625000
        k(    3) = (   0.0000000   0.2500000   0.0000000), wk =   0.0625000
        k(    4) = (   0.0000000   0.3750000   0.0000000), wk =   0.0625000
        k(    5) = (   0.0000000  -0.5000000   0.0000000), wk =   0.0312500
        k(    6) = (   0.1250000   0.0000000   0.0000000), wk =   0.0625000
        k(    7) = (   0.1250000   0.1250000   0.0000000), wk =   0.0625000
        k(    8) = (   0.1250000   0.2500000   0.0000000), wk =   0.0625000
        k(    9) = (   0.1250000   0.3750000   0.0000000), wk =   0.0625000
        k(   10) = (   0.1250000  -0.5000000   0.0000000), wk =   0.0625000
        k(   11) = (   0.1250000  -0.3750000   0.0000000), wk =   0.0625000
        k(   12) = (   0.1250000  -0.2500000   0.0000000), wk =   0.0625000
        k(   13) = (   0.1250000  -0.1250000   0.0000000), wk =   0.0625000
        k(   14) = (   0.2500000   0.0000000   0.0000000), wk =   0.0625000
        k(   15) = (   0.2500000   0.1250000   0.0000000), wk =   0.0625000
        k(   16) = (   0.2500000   0.2500000   0.0000000), wk =   0.0625000
        k(   17) = (   0.2500000   0.3750000   0.0000000), wk =   0.0625000
        k(   18) = (   0.2500000  -0.5000000   0.0000000), wk =   0.0625000
        k(   19) = (   0.2500000  -0.3750000   0.0000000), wk =   0.0625000
        k(   20) = (   0.2500000  -0.2500000   0.0000000), wk =   0.0625000
        k(   21) = (   0.2500000  -0.1250000   0.0000000), wk =   0.0625000
        k(   22) = (   0.3750000   0.0000000   0.0000000), wk =   0.0625000
        k(   23) = (   0.3750000   0.1250000   0.0000000), wk =   0.0625000
        k(   24) = (   0.3750000   0.2500000   0.0000000), wk =   0.0625000
        k(   25) = (   0.3750000   0.3750000   0.0000000), wk =   0.0625000
        k(   26) = (   0.3750000  -0.5000000   0.0000000), wk =   0.0625000
        k(   27) = (   0.3750000  -0.3750000   0.0000000), wk =   0.0625000
        k(   28) = (   0.3750000  -0.2500000   0.0000000), wk =   0.0625000
        k(   29) = (   0.3750000  -0.1250000   0.0000000), wk =   0.0625000
        k(   30) = (  -0.5000000   0.0000000   0.0000000), wk =   0.0312500
        k(   31) = (  -0.5000000   0.1250000   0.0000000), wk =   0.0625000
        k(   32) = (  -0.5000000   0.2500000   0.0000000), wk =   0.0625000
        k(   33) = (  -0.5000000   0.3750000   0.0000000), wk =   0.0625000
        k(   34) = (  -0.5000000  -0.5000000   0.0000000), wk =   0.0312500

     Dense  grid:  3875677 G-vectors     FFT dimensions: ( 120, 120, 625)

     Smooth grid:   980529 G-vectors     FFT dimensions: (  75,  75, 384)

     Estimated max dynamical RAM per process >     140.99MB

     Estimated total allocated dynamical RAM >   33838.49MB

     Solute:
       # atom     E (kcal/mol)  S (angs)
       1  Cu      1.00000000    3.00000000    given
       2  Cu      1.00000000    3.00000000    given
       3  Cu      1.00000000    3.00000000    given
       4  Cu      1.00000000    3.00000000    given
       5  Cu      1.00000000    3.00000000    given
       6  Cu      1.00000000    3.00000000    given
       7  Cu      1.00000000    3.00000000    given
       8  Cu      1.00000000    3.00000000    given
       9  Cu      1.00000000    3.00000000    given
      10  Cu      1.00000000    3.00000000    given
      11  Cu      1.00000000    3.00000000    given
      12  Cu      1.00000000    3.00000000    given
      13  Cu      1.00000000    3.00000000    given
      14  Cu      1.00000000    3.00000000    given
      15  Cu      1.00000000    3.00000000    given
      16  Cu      1.00000000    3.00000000    given
      17  Cu      1.00000000    3.00000000    given
      18  Cu      1.00000000    3.00000000    given
      19  Cu      1.00000000    3.00000000    given
      20  Cu      1.00000000    3.00000000    given
      21  Cu      1.00000000    3.00000000    given
      22  Cu      1.00000000    3.00000000    given
      23  Cu      1.00000000    3.00000000    given
      24  Cu      1.00000000    3.00000000    given
      25  Cu      1.00000000    3.00000000    given
      26  Cu      1.00000000    3.00000000    given
      27  Cu      1.00000000    3.00000000    given
      28  Cu      1.00000000    3.00000000    given
      29  Cu      1.00000000    3.00000000    given
      30  Cu      1.00000000    3.00000000    given
      31  Cu      1.00000000    3.00000000    given
      32  Cu      1.00000000    3.00000000    given
      33  Cu      1.00000000    3.00000000    given
      34  Cu      1.00000000    3.00000000    given
      35  Cu      1.00000000    3.00000000    given
      36  Cu      1.00000000    3.00000000    given
      37  C       0.07000000    3.55000000    OPLS-AA
      38  O       0.17000000    3.00000000    OPLS-AA

     Wall:
       Density =    0.01000000  bohr^-3
       E       =    0.10000000  kcal/mol
       S       =    4.00000000  angs

     L.J. cutoff radius =       5.0000  S


     Laue-RISM info
     --------------
     closure equation        =           KH
     temperature             =     300.0000  kelvin
     coulomb smearing radius =       2.0000  bohr
     number of solvent sites =            6
     solvent sites           =    O/h2o   H/h2o   L/h2o       K
     solvent sites           =     O/oh    H/oh
     #R-grids in local       =        11250
     #Rz-grids (unit-cell)   =          384
     #Rz-grids (expand-cell) =          720
     #G-grids in local       =         4081
     #Gxy-grids in local     =           17
     #Gxy-shells in local    =           17
     number of iterations    =        10000
     convergence threshold   =      1.0E-06
     convergence level       =       0.8000
     size of MDIIS           =           20
     step of MDIIS           =       0.8000
     solvent cutoff          =     249.8954  Ry
     Custom grid:   980529 G-vectors     FFT dimensions: (  75,  75, 384)

     Boundary Conditions        : Vacuum-Slab-Solvent
     unit-cell (in bohr)        : [ -37.794523  37.794523]
     expand-cell (in bohr)      : [ -37.794523 103.934937]
     solvent of right (in bohr) : [  -8.267552 103.934937]
     buffer  of right (in bohr) : [ -18.109875  -8.267552]
     Gxy = 0 of right (in bohr) : [ -18.109875  82.872365]
     repulsive wall (in bohr)   : [  -Infinity -10.486273]
     reference of potential     : right-hand side
     #grids to fit at edges of unit-cell =    4
     Laue grid:     3865 Gxy-vectors     FFT dimensions: (  75,  75, 720)


     MPI for site:
     number of site groups     =            1
     #procs in a site group    =          240
     this proc in a site group =            0
     the root in a site group  =            0
     this site group           =            0
     inter-site group comm.    =           23
     intra-site group comm.    =            5
     total number of sites     =            6
     starting index of sites   =            1
     ending index of sites     =            6


     MPI for task:
     #procs in a task group    =          240
     this proc in a task group =            0
     the root in a task group  =            0
     task group comm.          =            5


     Initial potential from superposition of free atoms
     Check: negative starting charge=   -0.001648

     starting charge  405.99177, renormalised to  406.00000

     Correlation function is read from file


     negative rho (up, down):  1.648E-03 0.000E+00


     %%%%%%%%%%%%%%%%%%%%%%%%%%%%%%%%%%%%%%%%%%%%%%%%%%%%%%%%%%%%%%%%%%%%%%%%
     %                                                                      %
     % You are using vdW-DF, which was implemented by the Thonhauser group. %
     % Please cite the following two papers that made this development      %
     % possible and the two reviews that describe the various versions:     %
     %                                                                      %
     %   T. Thonhauser et al., PRL 115, 136402 (2015).                      %
     %   T. Thonhauser et al., PRB 76, 125112 (2007).                       %
     %   K. Berland et al., Rep. Prog. Phys. 78, 066501 (2015).             %
     %   D.C. Langreth et al., J. Phys.: Condens. Matter 21, 084203 (2009). %
     %                                                                      %
     %                                                                      %
     % If you are calculating the stress with vdW-DF, please also cite:     %
     %                                                                      %
     %   R. Sabatini et al., J. Phys.: Condens. Matter 24, 424209 (2012).   %
     %                                                                      %
     %%%%%%%%%%%%%%%%%%%%%%%%%%%%%%%%%%%%%%%%%%%%%%%%%%%%%%%%%%%%%%%%%%%%%%%%


     Carrying out vdW-DF run using the following parameters:
     Nqs    =  20  Npoints =  1024  r_max =  100.000
     q_mesh =  0.00001000  0.04494208  0.09755937  0.15916263
               0.23128650  0.31572767  0.41458969  0.53033537
               0.66584808  0.82450364  1.01025438  1.22772762
               1.48234092  1.78043706  2.12944203  2.53805004
               3.01644009  3.57652955  4.23227104  5.00000000


     -----------------------------------------------
     Non-local corr. energy    =      22.28442056 Ry
     -----------------------------------------------


     Laue-RISM Calculation

     convergence threshold    = 6.310E-06
     iter. #     1  RMS(g-h-1)= 4.909E-02  nbox=  0
     iter. #     2  RMS(g-h-1)= 3.782E-02  nbox=  1
     iter. #     3  RMS(g-h-1)= 2.340E-02  nbox=  2
     iter. #     4  RMS(g-h-1)= 1.032E-02  nbox=  3
     iter. #     5  RMS(g-h-1)= 9.054E-03  nbox=  4
     iter. #     6  RMS(g-h-1)= 7.455E-03  nbox=  5
     iter. #     7  RMS(g-h-1)= 6.360E-03  nbox=  6
     iter. #     8  RMS(g-h-1)= 5.743E-03  nbox=  7
     iter. #     9  RMS(g-h-1)= 5.406E-03  nbox=  8
     iter. #    10  RMS(g-h-1)= 5.027E-03  nbox=  9
     iter. #    11  RMS(g-h-1)= 4.661E-03  nbox= 10
     iter. #    12  RMS(g-h-1)= 4.323E-03  nbox= 11
     iter. #    13  RMS(g-h-1)= 4.106E-03  nbox= 12
     iter. #    14  RMS(g-h-1)= 3.899E-03  nbox= 13
     iter. #    15  RMS(g-h-1)= 3.590E-03  nbox= 14
     iter. #    16  RMS(g-h-1)= 3.292E-03  nbox= 15
     iter. #    17  RMS(g-h-1)= 3.042E-03  nbox= 16
     iter. #    18  RMS(g-h-1)= 2.761E-03  nbox= 17
     iter. #    19  RMS(g-h-1)= 2.422E-03  nbox= 18
     iter. #    20  RMS(g-h-1)= 2.153E-03  nbox= 19
     iter. #    21  RMS(g-h-1)= 2.019E-03  nbox= 20
     iter. #    22  RMS(g-h-1)= 1.877E-03  nbox= 20
     iter. #    23  RMS(g-h-1)= 1.742E-03  nbox= 20
     iter. #    24  RMS(g-h-1)= 1.637E-03  nbox= 20
     iter. #    25  RMS(g-h-1)= 1.595E-03  nbox= 20
     iter. #    26  RMS(g-h-1)= 1.510E-03  nbox= 20
     iter. #    27  RMS(g-h-1)= 1.451E-03  nbox= 20
     iter. #    28  RMS(g-h-1)= 1.420E-03  nbox= 20
     iter. #    29  RMS(g-h-1)= 1.372E-03  nbox= 20
     iter. #    30  RMS(g-h-1)= 1.331E-03  nbox= 20
     iter. #    31  RMS(g-h-1)= 1.297E-03  nbox= 20
     iter. #    32  RMS(g-h-1)= 1.275E-03  nbox= 20
     iter. #    33  RMS(g-h-1)= 1.224E-03  nbox= 20
     iter. #    34  RMS(g-h-1)= 1.143E-03  nbox= 20
     iter. #    35  RMS(g-h-1)= 1.124E-03  nbox= 20
     iter. #    36  RMS(g-h-1)= 1.073E-03  nbox= 20
     iter. #    37  RMS(g-h-1)= 1.020E-03  nbox= 20
     iter. #    38  RMS(g-h-1)= 1.011E-03  nbox= 20
     iter. #    39  RMS(g-h-1)= 9.702E-04  nbox= 20
     iter. #    40  RMS(g-h-1)= 9.557E-04  nbox= 20
     iter. #    41  RMS(g-h-1)= 9.353E-04  nbox= 20
     iter. #    42  RMS(g-h-1)= 9.135E-04  nbox= 20
     iter. #    43  RMS(g-h-1)= 9.024E-04  nbox= 20
     iter. #    44  RMS(g-h-1)= 8.805E-04  nbox= 20
     iter. #    45  RMS(g-h-1)= 8.754E-04  nbox= 20
     iter. #    46  RMS(g-h-1)= 8.580E-04  nbox= 20
     iter. #    47  RMS(g-h-1)= 8.482E-04  nbox= 20
     iter. #    48  RMS(g-h-1)= 8.368E-04  nbox= 20
     iter. #    49  RMS(g-h-1)= 8.339E-04  nbox= 20
     iter. #    50  RMS(g-h-1)= 8.248E-04  nbox= 20
     iter. #    51  RMS(g-h-1)= 8.204E-04  nbox=  2
     iter. #    52  RMS(g-h-1)= 8.112E-04  nbox=  3
     iter. #    53  RMS(g-h-1)= 7.975E-04  nbox=  4
     iter. #    54  RMS(g-h-1)= 7.774E-04  nbox=  5
     iter. #    55  RMS(g-h-1)= 7.628E-04  nbox=  6
     iter. #    56  RMS(g-h-1)= 7.493E-04  nbox=  7
     iter. #    57  RMS(g-h-1)= 7.438E-04  nbox=  8
     iter. #    58  RMS(g-h-1)= 7.305E-04  nbox=  9
     iter. #    59  RMS(g-h-1)= 7.199E-04  nbox= 10
     iter. #    60  RMS(g-h-1)= 7.119E-04  nbox= 11
     iter. #    61  RMS(g-h-1)= 6.978E-04  nbox= 12
     iter. #    62  RMS(g-h-1)= 7.099E-04  nbox= 13
     iter. #    63  RMS(g-h-1)= 6.832E-04  nbox= 14
     iter. #    64  RMS(g-h-1)= 6.748E-04  nbox= 15
     iter. #    65  RMS(g-h-1)= 6.629E-04  nbox= 16
     iter. #    66  RMS(g-h-1)= 6.491E-04  nbox= 17
     iter. #    67  RMS(g-h-1)= 6.443E-04  nbox=  2
     iter. #    68  RMS(g-h-1)= 6.305E-04  nbox=  3
     iter. #    69  RMS(g-h-1)= 6.147E-04  nbox=  4
     iter. #    70  RMS(g-h-1)= 6.093E-04  nbox=  5
     iter. #    71  RMS(g-h-1)= 5.991E-04  nbox=  6
     iter. #    72  RMS(g-h-1)= 5.900E-04  nbox=  7
     iter. #    73  RMS(g-h-1)= 5.811E-04  nbox=  8
     iter. #    74  RMS(g-h-1)= 5.650E-04  nbox=  9
     iter. #    75  RMS(g-h-1)= 5.715E-04  nbox= 10
     iter. #    76  RMS(g-h-1)= 5.483E-04  nbox= 11
     iter. #    77  RMS(g-h-1)= 5.387E-04  nbox= 12
     iter. #    78  RMS(g-h-1)= 5.300E-04  nbox= 13
     iter. #    79  RMS(g-h-1)= 5.071E-04  nbox= 14
     iter. #    80  RMS(g-h-1)= 5.023E-04  nbox= 15
     iter. #    81  RMS(g-h-1)= 4.828E-04  nbox= 16
     iter. #    82  RMS(g-h-1)= 4.712E-04  nbox= 17
     iter. #    83  RMS(g-h-1)= 4.663E-04  nbox=  2
     iter. #    84  RMS(g-h-1)= 4.548E-04  nbox=  3
     iter. #    85  RMS(g-h-1)= 4.451E-04  nbox=  4
     iter. #    86  RMS(g-h-1)= 4.432E-04  nbox=  5
     iter. #    87  RMS(g-h-1)= 4.344E-04  nbox=  6
     iter. #    88  RMS(g-h-1)= 4.291E-04  nbox=  7
     iter. #    89  RMS(g-h-1)= 4.211E-04  nbox=  8
     iter. #    90  RMS(g-h-1)= 4.164E-04  nbox=  9
     iter. #    91  RMS(g-h-1)= 4.101E-04  nbox= 10
     iter. #    92  RMS(g-h-1)= 4.039E-04  nbox= 11
     iter. #    93  RMS(g-h-1)= 3.934E-04  nbox= 12
     iter. #    94  RMS(g-h-1)= 3.837E-04  nbox= 13
     iter. #    95  RMS(g-h-1)= 3.745E-04  nbox= 14
     iter. #    96  RMS(g-h-1)= 3.707E-04  nbox= 15
     iter. #    97  RMS(g-h-1)= 3.621E-04  nbox= 16
     iter. #    98  RMS(g-h-1)= 3.563E-04  nbox= 17
     iter. #    99  RMS(g-h-1)= 3.556E-04  nbox=  2
     iter. #   100  RMS(g-h-1)= 3.494E-04  nbox=  3
     iter. #   101  RMS(g-h-1)= 3.451E-04  nbox=  4
     iter. #   102  RMS(g-h-1)= 3.406E-04  nbox=  5
     iter. #   103  RMS(g-h-1)= 3.376E-04  nbox=  6
     iter. #   104  RMS(g-h-1)= 3.320E-04  nbox=  7
     iter. #   105  RMS(g-h-1)= 3.247E-04  nbox=  8
     iter. #   106  RMS(g-h-1)= 3.161E-04  nbox=  9
     iter. #   107  RMS(g-h-1)= 3.090E-04  nbox= 10
     iter. #   108  RMS(g-h-1)= 3.026E-04  nbox= 11
     iter. #   109  RMS(g-h-1)= 2.985E-04  nbox= 12
     iter. #   110  RMS(g-h-1)= 2.941E-04  nbox= 13
     iter. #   111  RMS(g-h-1)= 2.889E-04  nbox= 14
     iter. #   112  RMS(g-h-1)= 2.843E-04  nbox= 15
     iter. #   113  RMS(g-h-1)= 2.822E-04  nbox= 16
     iter. #   114  RMS(g-h-1)= 2.796E-04  nbox= 17
     iter. #   115  RMS(g-h-1)= 2.787E-04  nbox=  2
     iter. #   116  RMS(g-h-1)= 2.763E-04  nbox=  3
     iter. #   117  RMS(g-h-1)= 2.740E-04  nbox=  4
     iter. #   118  RMS(g-h-1)= 2.715E-04  nbox=  5
     iter. #   119  RMS(g-h-1)= 2.709E-04  nbox=  6
     iter. #   120  RMS(g-h-1)= 2.681E-04  nbox=  7
     iter. #   121  RMS(g-h-1)= 2.657E-04  nbox=  8
     iter. #   122  RMS(g-h-1)= 2.635E-04  nbox=  9
     iter. #   123  RMS(g-h-1)= 2.614E-04  nbox= 10
     iter. #   124  RMS(g-h-1)= 2.595E-04  nbox= 11
     iter. #   125  RMS(g-h-1)= 2.578E-04  nbox= 12
     iter. #   126  RMS(g-h-1)= 2.568E-04  nbox= 13
     iter. #   127  RMS(g-h-1)= 2.548E-04  nbox= 14
     iter. #   128  RMS(g-h-1)= 2.528E-04  nbox= 15
     iter. #   129  RMS(g-h-1)= 2.507E-04  nbox= 16
     iter. #   130  RMS(g-h-1)= 2.487E-04  nbox= 17
     iter. #   131  RMS(g-h-1)= 2.481E-04  nbox=  2
     iter. #   132  RMS(g-h-1)= 2.462E-04  nbox=  3
     iter. #   133  RMS(g-h-1)= 2.444E-04  nbox=  4
     iter. #   134  RMS(g-h-1)= 2.437E-04  nbox=  5
     iter. #   135  RMS(g-h-1)= 2.420E-04  nbox=  6
     iter. #   136  RMS(g-h-1)= 2.411E-04  nbox=  7
     iter. #   137  RMS(g-h-1)= 2.395E-04  nbox=  8
     iter. #   138  RMS(g-h-1)= 2.378E-04  nbox=  9
     iter. #   139  RMS(g-h-1)= 2.364E-04  nbox= 10
     iter. #   140  RMS(g-h-1)= 2.344E-04  nbox= 11
     iter. #   141  RMS(g-h-1)= 2.338E-04  nbox= 12
     iter. #   142  RMS(g-h-1)= 2.317E-04  nbox= 13
     iter. #   143  RMS(g-h-1)= 2.301E-04  nbox= 14
     iter. #   144  RMS(g-h-1)= 2.285E-04  nbox= 15
     iter. #   145  RMS(g-h-1)= 2.281E-04  nbox= 16
     iter. #   146  RMS(g-h-1)= 2.263E-04  nbox= 17
     iter. #   147  RMS(g-h-1)= 2.257E-04  nbox=  2
     iter. #   148  RMS(g-h-1)= 2.242E-04  nbox=  3
     iter. #   149  RMS(g-h-1)= 2.229E-04  nbox=  4
     iter. #   150  RMS(g-h-1)= 2.217E-04  nbox=  5
     iter. #   151  RMS(g-h-1)= 2.208E-04  nbox=  6
     iter. #   152  RMS(g-h-1)= 2.198E-04  nbox=  7
     iter. #   153  RMS(g-h-1)= 2.185E-04  nbox=  8
     iter. #   154  RMS(g-h-1)= 2.169E-04  nbox=  9
     iter. #   155  RMS(g-h-1)= 2.158E-04  nbox= 10
     iter. #   156  RMS(g-h-1)= 2.143E-04  nbox= 11
     iter. #   157  RMS(g-h-1)= 2.171E-04  nbox= 12
     iter. #   158  RMS(g-h-1)= 2.128E-04  nbox= 13
     iter. #   159  RMS(g-h-1)= 2.121E-04  nbox= 14
     iter. #   160  RMS(g-h-1)= 2.111E-04  nbox= 15
     iter. #   161  RMS(g-h-1)= 2.102E-04  nbox= 16
     iter. #   162  RMS(g-h-1)= 2.098E-04  nbox= 17
     iter. #   163  RMS(g-h-1)= 2.094E-04  nbox=  2
     iter. #   164  RMS(g-h-1)= 2.084E-04  nbox=  3
     iter. #   165  RMS(g-h-1)= 2.073E-04  nbox=  4
     iter. #   166  RMS(g-h-1)= 2.060E-04  nbox=  5
     iter. #   167  RMS(g-h-1)= 2.046E-04  nbox=  6
     iter. #   168  RMS(g-h-1)= 2.033E-04  nbox=  7
     iter. #   169  RMS(g-h-1)= 2.014E-04  nbox=  8
     iter. #   170  RMS(g-h-1)= 2.031E-04  nbox=  9
     iter. #   171  RMS(g-h-1)= 1.995E-04  nbox= 10
     iter. #   172  RMS(g-h-1)= 1.986E-04  nbox= 11
     iter. #   173  RMS(g-h-1)= 1.970E-04  nbox= 12
     iter. #   174  RMS(g-h-1)= 1.975E-04  nbox= 13
     iter. #   175  RMS(g-h-1)= 1.951E-04  nbox= 14
     iter. #   176  RMS(g-h-1)= 1.941E-04  nbox= 15
     iter. #   177  RMS(g-h-1)= 1.930E-04  nbox= 16
     iter. #   178  RMS(g-h-1)= 1.916E-04  nbox= 17
     iter. #   179  RMS(g-h-1)= 1.912E-04  nbox=  2
     iter. #   180  RMS(g-h-1)= 1.899E-04  nbox=  3
     iter. #   181  RMS(g-h-1)= 1.881E-04  nbox=  4
     iter. #   182  RMS(g-h-1)= 1.864E-04  nbox=  5
     iter. #   183  RMS(g-h-1)= 1.851E-04  nbox=  6
     iter. #   184  RMS(g-h-1)= 1.835E-04  nbox=  7
     iter. #   185  RMS(g-h-1)= 1.812E-04  nbox=  8
     iter. #   186  RMS(g-h-1)= 1.783E-04  nbox=  9
     iter. #   187  RMS(g-h-1)= 1.758E-04  nbox= 10
     iter. #   188  RMS(g-h-1)= 1.736E-04  nbox= 11
     iter. #   189  RMS(g-h-1)= 1.724E-04  nbox= 12
     iter. #   190  RMS(g-h-1)= 1.706E-04  nbox= 13
     iter. #   191  RMS(g-h-1)= 1.687E-04  nbox= 14
     iter. #   192  RMS(g-h-1)= 1.668E-04  nbox= 15
     iter. #   193  RMS(g-h-1)= 1.647E-04  nbox= 16
     iter. #   194  RMS(g-h-1)= 1.646E-04  nbox= 17
     iter. #   195  RMS(g-h-1)= 1.643E-04  nbox=  2
     iter. #   196  RMS(g-h-1)= 1.623E-04  nbox=  3
     iter. #   197  RMS(g-h-1)= 1.607E-04  nbox=  4
     iter. #   198  RMS(g-h-1)= 1.592E-04  nbox=  5
     iter. #   199  RMS(g-h-1)= 1.577E-04  nbox=  6
     iter. #   200  RMS(g-h-1)= 1.563E-04  nbox=  7
     iter. #   201  RMS(g-h-1)= 1.553E-04  nbox=  8
     iter. #   202  RMS(g-h-1)= 1.536E-04  nbox=  9
     iter. #   203  RMS(g-h-1)= 1.516E-04  nbox= 10
     iter. #   204  RMS(g-h-1)= 1.498E-04  nbox= 11
     iter. #   205  RMS(g-h-1)= 1.492E-04  nbox= 12
     iter. #   206  RMS(g-h-1)= 1.470E-04  nbox= 13
     iter. #   207  RMS(g-h-1)= 1.467E-04  nbox= 14
     iter. #   208  RMS(g-h-1)= 1.452E-04  nbox= 15
     iter. #   209  RMS(g-h-1)= 1.442E-04  nbox= 16
     iter. #   210  RMS(g-h-1)= 1.432E-04  nbox= 17
     iter. #   211  RMS(g-h-1)= 1.430E-04  nbox=  2
     iter. #   212  RMS(g-h-1)= 1.420E-04  nbox=  3
     iter. #   213  RMS(g-h-1)= 1.411E-04  nbox=  4
     iter. #   214  RMS(g-h-1)= 1.403E-04  nbox=  5
     iter. #   215  RMS(g-h-1)= 1.393E-04  nbox=  6
     iter. #   216  RMS(g-h-1)= 1.388E-04  nbox=  7
     iter. #   217  RMS(g-h-1)= 1.377E-04  nbox=  8
     iter. #   218  RMS(g-h-1)= 1.367E-04  nbox=  9
     iter. #   219  RMS(g-h-1)= 1.358E-04  nbox= 10
     iter. #   220  RMS(g-h-1)= 1.347E-04  nbox= 11
     iter. #   221  RMS(g-h-1)= 1.347E-04  nbox= 12
     iter. #   222  RMS(g-h-1)= 1.335E-04  nbox= 13
     iter. #   223  RMS(g-h-1)= 1.326E-04  nbox= 14
     iter. #   224  RMS(g-h-1)= 1.317E-04  nbox= 15
     iter. #   225  RMS(g-h-1)= 1.308E-04  nbox= 16
     iter. #   226  RMS(g-h-1)= 1.301E-04  nbox= 17
     iter. #   227  RMS(g-h-1)= 1.297E-04  nbox=  2
     iter. #   228  RMS(g-h-1)= 1.286E-04  nbox=  3
     iter. #   229  RMS(g-h-1)= 1.271E-04  nbox=  4
     iter. #   230  RMS(g-h-1)= 1.259E-04  nbox=  5
     iter. #   231  RMS(g-h-1)= 1.245E-04  nbox=  6
     iter. #   232  RMS(g-h-1)= 1.242E-04  nbox=  7
     iter. #   233  RMS(g-h-1)= 1.227E-04  nbox=  8
     iter. #   234  RMS(g-h-1)= 1.215E-04  nbox=  9
     iter. #   235  RMS(g-h-1)= 1.200E-04  nbox= 10
     iter. #   236  RMS(g-h-1)= 1.191E-04  nbox= 11
     iter. #   237  RMS(g-h-1)= 1.181E-04  nbox= 12
     iter. #   238  RMS(g-h-1)= 1.175E-04  nbox= 13
     iter. #   239  RMS(g-h-1)= 1.164E-04  nbox= 14
     iter. #   240  RMS(g-h-1)= 1.153E-04  nbox= 15
     iter. #   241  RMS(g-h-1)= 1.145E-04  nbox= 16
     iter. #   242  RMS(g-h-1)= 1.136E-04  nbox= 17
     iter. #   243  RMS(g-h-1)= 1.131E-04  nbox=  2
     iter. #   244  RMS(g-h-1)= 1.119E-04  nbox=  3
     iter. #   245  RMS(g-h-1)= 1.106E-04  nbox=  4
     iter. #   246  RMS(g-h-1)= 1.093E-04  nbox=  5
     iter. #   247  RMS(g-h-1)= 1.082E-04  nbox=  6
     iter. #   248  RMS(g-h-1)= 1.071E-04  nbox=  7
     iter. #   249  RMS(g-h-1)= 1.054E-04  nbox=  8
     iter. #   250  RMS(g-h-1)= 1.041E-04  nbox=  9
     iter. #   251  RMS(g-h-1)= 1.026E-04  nbox= 10
     iter. #   252  RMS(g-h-1)= 1.014E-04  nbox= 11
     iter. #   253  RMS(g-h-1)= 1.008E-04  nbox= 12
     iter. #   254  RMS(g-h-1)= 9.978E-05  nbox= 13
     iter. #   255  RMS(g-h-1)= 9.875E-05  nbox= 14
     iter. #   256  RMS(g-h-1)= 9.775E-05  nbox= 15
     iter. #   257  RMS(g-h-1)= 9.681E-05  nbox= 16
     iter. #   258  RMS(g-h-1)= 9.609E-05  nbox= 17
     iter. #   259  RMS(g-h-1)= 9.574E-05  nbox=  2
     iter. #   260  RMS(g-h-1)= 9.497E-05  nbox=  3
     iter. #   261  RMS(g-h-1)= 9.403E-05  nbox=  4
     iter. #   262  RMS(g-h-1)= 9.325E-05  nbox=  5
     iter. #   263  RMS(g-h-1)= 9.256E-05  nbox=  6
     iter. #   264  RMS(g-h-1)= 9.164E-05  nbox=  7
     iter. #   265  RMS(g-h-1)= 9.055E-05  nbox=  8
     iter. #   266  RMS(g-h-1)= 8.920E-05  nbox=  9
     iter. #   267  RMS(g-h-1)= 8.800E-05  nbox= 10
     iter. #   268  RMS(g-h-1)= 8.695E-05  nbox= 11
     iter. #   269  RMS(g-h-1)= 8.621E-05  nbox= 12
     iter. #   270  RMS(g-h-1)= 8.544E-05  nbox= 13
     iter. #   271  RMS(g-h-1)= 8.436E-05  nbox= 14
     iter. #   272  RMS(g-h-1)= 8.368E-05  nbox= 15
     iter. #   273  RMS(g-h-1)= 8.272E-05  nbox= 16
     iter. #   274  RMS(g-h-1)= 8.356E-05  nbox= 17
     iter. #   275  RMS(g-h-1)= 8.408E-05  nbox=  2
     iter. #   276  RMS(g-h-1)= 8.175E-05  nbox=  3
     iter. #   277  RMS(g-h-1)= 8.086E-05  nbox=  4
     iter. #   278  RMS(g-h-1)= 7.996E-05  nbox=  5
     iter. #   279  RMS(g-h-1)= 7.887E-05  nbox=  6
     iter. #   280  RMS(g-h-1)= 7.870E-05  nbox=  7
     iter. #   281  RMS(g-h-1)= 7.738E-05  nbox=  8
     iter. #   282  RMS(g-h-1)= 7.639E-05  nbox=  9
     iter. #   283  RMS(g-h-1)= 7.506E-05  nbox= 10
     iter. #   284  RMS(g-h-1)= 7.465E-05  nbox= 11
     iter. #   285  RMS(g-h-1)= 7.281E-05  nbox= 12
     iter. #   286  RMS(g-h-1)= 7.299E-05  nbox= 13
     iter. #   287  RMS(g-h-1)= 7.162E-05  nbox= 14
     iter. #   288  RMS(g-h-1)= 7.084E-05  nbox= 15
     iter. #   289  RMS(g-h-1)= 6.991E-05  nbox= 16
     iter. #   290  RMS(g-h-1)= 6.937E-05  nbox= 17
     iter. #   291  RMS(g-h-1)= 6.902E-05  nbox=  2
     iter. #   292  RMS(g-h-1)= 6.841E-05  nbox=  3
     iter. #   293  RMS(g-h-1)= 6.750E-05  nbox=  4
     iter. #   294  RMS(g-h-1)= 6.669E-05  nbox=  5
     iter. #   295  RMS(g-h-1)= 6.593E-05  nbox=  6
     iter. #   296  RMS(g-h-1)= 6.548E-05  nbox=  7
     iter. #   297  RMS(g-h-1)= 6.498E-05  nbox=  8
     iter. #   298  RMS(g-h-1)= 6.445E-05  nbox=  9
     iter. #   299  RMS(g-h-1)= 6.396E-05  nbox= 10
     iter. #   300  RMS(g-h-1)= 6.375E-05  nbox= 11
     iter. #   301  RMS(g-h-1)= 6.327E-05  nbox= 12
     iter. #   302  RMS(g-h-1)= 6.377E-05  nbox= 13
     iter. #   303  RMS(g-h-1)= 6.269E-05  nbox= 14
     iter. #   304  RMS(g-h-1)= 6.251E-05  nbox= 15
     iter. #   305  RMS(g-h-1)= 6.215E-05  nbox= 16
     iter. #   306  RMS(g-h-1)= 6.166E-05  nbox= 17
     iter. #   307  RMS(g-h-1)= 6.219E-05  nbox=  2
     iter. #   308  RMS(g-h-1)= 6.117E-05  nbox=  3
     iter. #   309  RMS(g-h-1)= 6.082E-05  nbox=  4
     iter. #   310  RMS(g-h-1)= 6.048E-05  nbox=  5
     iter. #   311  RMS(g-h-1)= 6.078E-05  nbox=  6
     iter. #   312  RMS(g-h-1)= 6.005E-05  nbox=  7
     iter. #   313  RMS(g-h-1)= 5.989E-05  nbox=  8
     iter. #   314  RMS(g-h-1)= 5.965E-05  nbox=  9
     iter. #   315  RMS(g-h-1)= 5.949E-05  nbox= 10
     iter. #   316  RMS(g-h-1)= 5.924E-05  nbox= 11
     iter. #   317  RMS(g-h-1)= 5.938E-05  nbox= 12
     iter. #   318  RMS(g-h-1)= 5.894E-05  nbox= 13
     iter. #   319  RMS(g-h-1)= 5.892E-05  nbox= 14
     iter. #   320  RMS(g-h-1)= 5.868E-05  nbox= 15
     iter. #   321  RMS(g-h-1)= 5.847E-05  nbox= 16
     iter. #   322  RMS(g-h-1)= 5.826E-05  nbox= 17
     iter. #   323  RMS(g-h-1)= 5.818E-05  nbox=  2
     iter. #   324  RMS(g-h-1)= 5.801E-05  nbox=  3
     iter. #   325  RMS(g-h-1)= 5.777E-05  nbox=  4
     iter. #   326  RMS(g-h-1)= 5.758E-05  nbox=  5
     iter. #   327  RMS(g-h-1)= 5.740E-05  nbox=  6
     iter. #   328  RMS(g-h-1)= 5.731E-05  nbox=  7
     iter. #   329  RMS(g-h-1)= 5.711E-05  nbox=  8
     iter. #   330  RMS(g-h-1)= 5.693E-05  nbox=  9
     iter. #   331  RMS(g-h-1)= 5.674E-05  nbox= 10
     iter. #   332  RMS(g-h-1)= 5.664E-05  nbox= 11
     iter. #   333  RMS(g-h-1)= 5.651E-05  nbox= 12
     iter. #   334  RMS(g-h-1)= 5.689E-05  nbox= 13
     iter. #   335  RMS(g-h-1)= 5.613E-05  nbox= 14
     iter. #   336  RMS(g-h-1)= 5.598E-05  nbox= 15
     iter. #   337  RMS(g-h-1)= 5.572E-05  nbox= 16
     iter. #   338  RMS(g-h-1)= 5.544E-05  nbox= 17
     iter. #   339  RMS(g-h-1)= 5.537E-05  nbox=  2
     iter. #   340  RMS(g-h-1)= 5.509E-05  nbox=  3
     iter. #   341  RMS(g-h-1)= 5.485E-05  nbox=  4
     iter. #   342  RMS(g-h-1)= 5.465E-05  nbox=  5
     iter. #   343  RMS(g-h-1)= 5.446E-05  nbox=  6
     iter. #   344  RMS(g-h-1)= 5.436E-05  nbox=  7
     iter. #   345  RMS(g-h-1)= 5.411E-05  nbox=  8
     iter. #   346  RMS(g-h-1)= 5.389E-05  nbox=  9
     iter. #   347  RMS(g-h-1)= 5.365E-05  nbox= 10
     iter. #   348  RMS(g-h-1)= 5.340E-05  nbox= 11
     iter. #   349  RMS(g-h-1)= 5.314E-05  nbox= 12
     iter. #   350  RMS(g-h-1)= 5.291E-05  nbox= 13
     iter. #   351  RMS(g-h-1)= 5.273E-05  nbox= 14
     iter. #   352  RMS(g-h-1)= 5.245E-05  nbox= 15
     iter. #   353  RMS(g-h-1)= 5.215E-05  nbox= 16
     iter. #   354  RMS(g-h-1)= 5.188E-05  nbox= 17
     iter. #   355  RMS(g-h-1)= 5.181E-05  nbox=  2
     iter. #   356  RMS(g-h-1)= 5.148E-05  nbox=  3
     iter. #   357  RMS(g-h-1)= 5.125E-05  nbox=  4
     iter. #   358  RMS(g-h-1)= 5.094E-05  nbox=  5
     iter. #   359  RMS(g-h-1)= 5.077E-05  nbox=  6
     iter. #   360  RMS(g-h-1)= 5.052E-05  nbox=  7
     iter. #   361  RMS(g-h-1)= 5.016E-05  nbox=  8
     iter. #   362  RMS(g-h-1)= 4.987E-05  nbox=  9
     iter. #   363  RMS(g-h-1)= 4.952E-05  nbox= 10
     iter. #   364  RMS(g-h-1)= 4.991E-05  nbox= 11
     iter. #   365  RMS(g-h-1)= 4.906E-05  nbox= 12
     iter. #   366  RMS(g-h-1)= 4.906E-05  nbox= 13
     iter. #   367  RMS(g-h-1)= 4.876E-05  nbox= 14
     iter. #   368  RMS(g-h-1)= 4.857E-05  nbox= 15
     iter. #   369  RMS(g-h-1)= 4.843E-05  nbox= 16
     iter. #   370  RMS(g-h-1)= 4.824E-05  nbox= 17
     iter. #   371  RMS(g-h-1)= 4.816E-05  nbox=  2
     iter. #   372  RMS(g-h-1)= 4.797E-05  nbox=  3
     iter. #   373  RMS(g-h-1)= 4.779E-05  nbox=  4
     iter. #   374  RMS(g-h-1)= 4.759E-05  nbox=  5
     iter. #   375  RMS(g-h-1)= 4.751E-05  nbox=  6
     iter. #   376  RMS(g-h-1)= 4.732E-05  nbox=  7
     iter. #   377  RMS(g-h-1)= 4.718E-05  nbox=  8
     iter. #   378  RMS(g-h-1)= 4.705E-05  nbox=  9
     iter. #   379  RMS(g-h-1)= 4.692E-05  nbox= 10
     iter. #   380  RMS(g-h-1)= 4.679E-05  nbox= 11
     iter. #   381  RMS(g-h-1)= 4.667E-05  nbox= 12
     iter. #   382  RMS(g-h-1)= 4.653E-05  nbox= 13
     iter. #   383  RMS(g-h-1)= 4.643E-05  nbox= 14
     iter. #   384  RMS(g-h-1)= 4.624E-05  nbox= 15
     iter. #   385  RMS(g-h-1)= 4.604E-05  nbox= 16
     iter. #   386  RMS(g-h-1)= 4.585E-05  nbox= 17
     iter. #   387  RMS(g-h-1)= 4.582E-05  nbox=  2
     iter. #   388  RMS(g-h-1)= 4.562E-05  nbox=  3
     iter. #   389  RMS(g-h-1)= 4.545E-05  nbox=  4
     iter. #   390  RMS(g-h-1)= 4.573E-05  nbox=  5
     iter. #   391  RMS(g-h-1)= 4.516E-05  nbox=  6
     iter. #   392  RMS(g-h-1)= 4.514E-05  nbox=  7
     iter. #   393  RMS(g-h-1)= 4.495E-05  nbox=  8
     iter. #   394  RMS(g-h-1)= 4.482E-05  nbox=  9
     iter. #   395  RMS(g-h-1)= 4.461E-05  nbox= 10
     iter. #   396  RMS(g-h-1)= 4.466E-05  nbox= 11
     iter. #   397  RMS(g-h-1)= 4.443E-05  nbox= 12
     iter. #   398  RMS(g-h-1)= 4.434E-05  nbox= 13
     iter. #   399  RMS(g-h-1)= 4.420E-05  nbox= 14
     iter. #   400  RMS(g-h-1)= 4.403E-05  nbox= 15
     iter. #   401  RMS(g-h-1)= 4.385E-05  nbox= 16
     iter. #   402  RMS(g-h-1)= 4.373E-05  nbox= 17
     iter. #   403  RMS(g-h-1)= 4.366E-05  nbox=  2
     iter. #   404  RMS(g-h-1)= 4.347E-05  nbox=  3
     iter. #   405  RMS(g-h-1)= 4.329E-05  nbox=  4
     iter. #   406  RMS(g-h-1)= 4.312E-05  nbox=  5
     iter. #   407  RMS(g-h-1)= 4.295E-05  nbox=  6
     iter. #   408  RMS(g-h-1)= 4.294E-05  nbox=  7
     iter. #   409  RMS(g-h-1)= 4.274E-05  nbox=  8
     iter. #   410  RMS(g-h-1)= 4.266E-05  nbox=  9
     iter. #   411  RMS(g-h-1)= 4.253E-05  nbox= 10
     iter. #   412  RMS(g-h-1)= 4.244E-05  nbox= 11
     iter. #   413  RMS(g-h-1)= 4.233E-05  nbox= 12
     iter. #   414  RMS(g-h-1)= 4.252E-05  nbox= 13
     iter. #   415  RMS(g-h-1)= 4.229E-05  nbox= 14
     iter. #   416  RMS(g-h-1)= 4.226E-05  nbox= 15
     iter. #   417  RMS(g-h-1)= 4.217E-05  nbox= 16
     iter. #   418  RMS(g-h-1)= 4.210E-05  nbox= 17
     iter. #   419  RMS(g-h-1)= 4.206E-05  nbox=  2
     iter. #   420  RMS(g-h-1)= 4.198E-05  nbox=  3
     iter. #   421  RMS(g-h-1)= 4.189E-05  nbox=  4
     iter. #   422  RMS(g-h-1)= 4.182E-05  nbox=  5
     iter. #   423  RMS(g-h-1)= 4.179E-05  nbox=  6
     iter. #   424  RMS(g-h-1)= 4.172E-05  nbox=  7
     iter. #   425  RMS(g-h-1)= 4.166E-05  nbox=  8
     iter. #   426  RMS(g-h-1)= 4.158E-05  nbox=  9
     iter. #   427  RMS(g-h-1)= 4.151E-05  nbox= 10
     iter. #   428  RMS(g-h-1)= 4.146E-05  nbox= 11
     iter. #   429  RMS(g-h-1)= 4.142E-05  nbox= 12
     iter. #   430  RMS(g-h-1)= 4.138E-05  nbox= 13
     iter. #   431  RMS(g-h-1)= 4.131E-05  nbox= 14
     iter. #   432  RMS(g-h-1)= 4.124E-05  nbox= 15
     iter. #   433  RMS(g-h-1)= 4.118E-05  nbox= 16
     iter. #   434  RMS(g-h-1)= 4.111E-05  nbox= 17
     iter. #   435  RMS(g-h-1)= 4.110E-05  nbox=  2
     iter. #   436  RMS(g-h-1)= 4.104E-05  nbox=  3
     iter. #   437  RMS(g-h-1)= 4.098E-05  nbox=  4
     iter. #   438  RMS(g-h-1)= 4.091E-05  nbox=  5
     iter. #   439  RMS(g-h-1)= 4.084E-05  nbox=  6
     iter. #   440  RMS(g-h-1)= 4.080E-05  nbox=  7
     iter. #   441  RMS(g-h-1)= 4.072E-05  nbox=  8
     iter. #   442  RMS(g-h-1)= 4.063E-05  nbox=  9
     iter. #   443  RMS(g-h-1)= 4.051E-05  nbox= 10
     iter. #   444  RMS(g-h-1)= 4.040E-05  nbox= 11
     iter. #   445  RMS(g-h-1)= 4.028E-05  nbox= 12
     iter. #   446  RMS(g-h-1)= 4.019E-05  nbox= 13
     iter. #   447  RMS(g-h-1)= 4.013E-05  nbox= 14
     iter. #   448  RMS(g-h-1)= 4.007E-05  nbox= 15
     iter. #   449  RMS(g-h-1)= 3.996E-05  nbox= 16
     iter. #   450  RMS(g-h-1)= 3.984E-05  nbox= 17
     iter. #   451  RMS(g-h-1)= 3.982E-05  nbox=  2
     iter. #   452  RMS(g-h-1)= 3.970E-05  nbox=  3
     iter. #   453  RMS(g-h-1)= 3.956E-05  nbox=  4
     iter. #   454  RMS(g-h-1)= 3.942E-05  nbox=  5
     iter. #   455  RMS(g-h-1)= 3.929E-05  nbox=  6
     iter. #   456  RMS(g-h-1)= 3.922E-05  nbox=  7
     iter. #   457  RMS(g-h-1)= 3.909E-05  nbox=  8
     iter. #   458  RMS(g-h-1)= 3.897E-05  nbox=  9
     iter. #   459  RMS(g-h-1)= 3.883E-05  nbox= 10
     iter. #   460  RMS(g-h-1)= 3.870E-05  nbox= 11
     iter. #   461  RMS(g-h-1)= 3.857E-05  nbox= 12
     iter. #   462  RMS(g-h-1)= 3.841E-05  nbox= 13
     iter. #   463  RMS(g-h-1)= 3.829E-05  nbox= 14
     iter. #   464  RMS(g-h-1)= 3.818E-05  nbox= 15
     iter. #   465  RMS(g-h-1)= 3.800E-05  nbox= 16
     iter. #   466  RMS(g-h-1)= 3.784E-05  nbox= 17
     iter. #   467  RMS(g-h-1)= 3.780E-05  nbox=  2
     iter. #   468  RMS(g-h-1)= 3.762E-05  nbox=  3
     iter. #   469  RMS(g-h-1)= 3.746E-05  nbox=  4
     iter. #   470  RMS(g-h-1)= 3.729E-05  nbox=  5
     iter. #   471  RMS(g-h-1)= 3.717E-05  nbox=  6
     iter. #   472  RMS(g-h-1)= 3.703E-05  nbox=  7
     iter. #   473  RMS(g-h-1)= 3.687E-05  nbox=  8
     iter. #   474  RMS(g-h-1)= 3.668E-05  nbox=  9
     iter. #   475  RMS(g-h-1)= 3.648E-05  nbox= 10
     iter. #   476  RMS(g-h-1)= 3.632E-05  nbox= 11
     iter. #   477  RMS(g-h-1)= 3.616E-05  nbox= 12
     iter. #   478  RMS(g-h-1)= 3.608E-05  nbox= 13
     iter. #   479  RMS(g-h-1)= 3.591E-05  nbox= 14
     iter. #   480  RMS(g-h-1)= 3.574E-05  nbox= 15
     iter. #   481  RMS(g-h-1)= 3.560E-05  nbox= 16
     iter. #   482  RMS(g-h-1)= 3.546E-05  nbox= 17
     iter. #   483  RMS(g-h-1)= 3.544E-05  nbox=  2
     iter. #   484  RMS(g-h-1)= 3.529E-05  nbox=  3
     iter. #   485  RMS(g-h-1)= 3.516E-05  nbox=  4
     iter. #   486  RMS(g-h-1)= 3.500E-05  nbox=  5
     iter. #   487  RMS(g-h-1)= 3.489E-05  nbox=  6
     iter. #   488  RMS(g-h-1)= 3.477E-05  nbox=  7
     iter. #   489  RMS(g-h-1)= 3.460E-05  nbox=  8
     iter. #   490  RMS(g-h-1)= 3.443E-05  nbox=  9
     iter. #   491  RMS(g-h-1)= 3.428E-05  nbox= 10
     iter. #   492  RMS(g-h-1)= 3.414E-05  nbox= 11
     iter. #   493  RMS(g-h-1)= 3.401E-05  nbox= 12
     iter. #   494  RMS(g-h-1)= 3.389E-05  nbox= 13
     iter. #   495  RMS(g-h-1)= 3.382E-05  nbox= 14
     iter. #   496  RMS(g-h-1)= 3.372E-05  nbox= 15
     iter. #   497  RMS(g-h-1)= 3.359E-05  nbox= 16
     iter. #   498  RMS(g-h-1)= 3.347E-05  nbox= 17
     iter. #   499  RMS(g-h-1)= 3.346E-05  nbox=  2
     iter. #   500  RMS(g-h-1)= 3.335E-05  nbox=  3
     iter. #   501  RMS(g-h-1)= 3.326E-05  nbox=  4
     iter. #   502  RMS(g-h-1)= 3.317E-05  nbox=  5
     iter. #   503  RMS(g-h-1)= 3.310E-05  nbox=  6
     iter. #   504  RMS(g-h-1)= 3.307E-05  nbox=  7
     iter. #   505  RMS(g-h-1)= 3.299E-05  nbox=  8
     iter. #   506  RMS(g-h-1)= 3.291E-05  nbox=  9
     iter. #   507  RMS(g-h-1)= 3.284E-05  nbox= 10
     iter. #   508  RMS(g-h-1)= 3.277E-05  nbox= 11
     iter. #   509  RMS(g-h-1)= 3.271E-05  nbox= 12
     iter. #   510  RMS(g-h-1)= 3.266E-05  nbox= 13
     iter. #   511  RMS(g-h-1)= 3.260E-05  nbox= 14
     iter. #   512  RMS(g-h-1)= 3.257E-05  nbox= 15
     iter. #   513  RMS(g-h-1)= 3.250E-05  nbox= 16
     iter. #   514  RMS(g-h-1)= 3.243E-05  nbox= 17
     iter. #   515  RMS(g-h-1)= 3.241E-05  nbox=  2
     iter. #   516  RMS(g-h-1)= 3.234E-05  nbox=  3
     iter. #   517  RMS(g-h-1)= 3.227E-05  nbox=  4
     iter. #   518  RMS(g-h-1)= 3.222E-05  nbox=  5
     iter. #   519  RMS(g-h-1)= 3.216E-05  nbox=  6
     iter. #   520  RMS(g-h-1)= 3.214E-05  nbox=  7
     iter. #   521  RMS(g-h-1)= 3.211E-05  nbox=  8
     iter. #   522  RMS(g-h-1)= 3.206E-05  nbox=  9
     iter. #   523  RMS(g-h-1)= 3.202E-05  nbox= 10
     iter. #   524  RMS(g-h-1)= 3.197E-05  nbox= 11
     iter. #   525  RMS(g-h-1)= 3.191E-05  nbox= 12
     iter. #   526  RMS(g-h-1)= 3.185E-05  nbox= 13
     iter. #   527  RMS(g-h-1)= 3.178E-05  nbox= 14
     iter. #   528  RMS(g-h-1)= 3.170E-05  nbox= 15
     iter. #   529  RMS(g-h-1)= 3.167E-05  nbox= 16
     iter. #   530  RMS(g-h-1)= 3.159E-05  nbox= 17
     iter. #   531  RMS(g-h-1)= 3.158E-05  nbox=  2
     iter. #   532  RMS(g-h-1)= 3.149E-05  nbox=  3
     iter. #   533  RMS(g-h-1)= 3.141E-05  nbox=  4
     iter. #   534  RMS(g-h-1)= 3.133E-05  nbox=  5
     iter. #   535  RMS(g-h-1)= 3.125E-05  nbox=  6
     iter. #   536  RMS(g-h-1)= 3.119E-05  nbox=  7
     iter. #   537  RMS(g-h-1)= 3.113E-05  nbox=  8
     iter. #   538  RMS(g-h-1)= 3.102E-05  nbox=  9
     iter. #   539  RMS(g-h-1)= 3.091E-05  nbox= 10
     iter. #   540  RMS(g-h-1)= 3.080E-05  nbox= 11
     iter. #   541  RMS(g-h-1)= 3.067E-05  nbox= 12
     iter. #   542  RMS(g-h-1)= 3.054E-05  nbox= 13
     iter. #   543  RMS(g-h-1)= 3.040E-05  nbox= 14
     iter. #   544  RMS(g-h-1)= 3.032E-05  nbox= 15
     iter. #   545  RMS(g-h-1)= 3.022E-05  nbox= 16
     iter. #   546  RMS(g-h-1)= 3.008E-05  nbox= 17
     iter. #   547  RMS(g-h-1)= 3.005E-05  nbox=  2
     iter. #   548  RMS(g-h-1)= 2.992E-05  nbox=  3
     iter. #   549  RMS(g-h-1)= 2.977E-05  nbox=  4
     iter. #   550  RMS(g-h-1)= 2.964E-05  nbox=  5
     iter. #   551  RMS(g-h-1)= 2.952E-05  nbox=  6
     iter. #   552  RMS(g-h-1)= 2.944E-05  nbox=  7
     iter. #   553  RMS(g-h-1)= 2.933E-05  nbox=  8
     iter. #   554  RMS(g-h-1)= 2.916E-05  nbox=  9
     iter. #   555  RMS(g-h-1)= 2.900E-05  nbox= 10
     iter. #   556  RMS(g-h-1)= 2.883E-05  nbox= 11
     iter. #   557  RMS(g-h-1)= 2.864E-05  nbox= 12
     iter. #   558  RMS(g-h-1)= 2.850E-05  nbox= 13
     iter. #   559  RMS(g-h-1)= 2.841E-05  nbox= 14
     iter. #   560  RMS(g-h-1)= 2.825E-05  nbox= 15
     iter. #   561  RMS(g-h-1)= 2.811E-05  nbox= 16
     iter. #   562  RMS(g-h-1)= 2.797E-05  nbox= 17
     iter. #   563  RMS(g-h-1)= 2.794E-05  nbox=  2
     iter. #   564  RMS(g-h-1)= 2.779E-05  nbox=  3
     iter. #   565  RMS(g-h-1)= 2.768E-05  nbox=  4
     iter. #   566  RMS(g-h-1)= 2.755E-05  nbox=  5
     iter. #   567  RMS(g-h-1)= 2.744E-05  nbox=  6
     iter. #   568  RMS(g-h-1)= 2.736E-05  nbox=  7
     iter. #   569  RMS(g-h-1)= 2.725E-05  nbox=  8
     iter. #   570  RMS(g-h-1)= 2.713E-05  nbox=  9
     iter. #   571  RMS(g-h-1)= 2.700E-05  nbox= 10
     iter. #   572  RMS(g-h-1)= 2.689E-05  nbox= 11
     iter. #   573  RMS(g-h-1)= 2.681E-05  nbox= 12
     iter. #   574  RMS(g-h-1)= 2.673E-05  nbox= 13
     iter. #   575  RMS(g-h-1)= 2.665E-05  nbox= 14
     iter. #   576  RMS(g-h-1)= 2.654E-05  nbox= 15
     iter. #   577  RMS(g-h-1)= 2.643E-05  nbox= 16
     iter. #   578  RMS(g-h-1)= 2.633E-05  nbox= 17
     iter. #   579  RMS(g-h-1)= 2.631E-05  nbox=  2
     iter. #   580  RMS(g-h-1)= 2.621E-05  nbox=  3
     iter. #   581  RMS(g-h-1)= 2.613E-05  nbox=  4
     iter. #   582  RMS(g-h-1)= 2.604E-05  nbox=  5
     iter. #   583  RMS(g-h-1)= 2.599E-05  nbox=  6
     iter. #   584  RMS(g-h-1)= 2.595E-05  nbox=  7
     iter. #   585  RMS(g-h-1)= 2.588E-05  nbox=  8
     iter. #   586  RMS(g-h-1)= 2.581E-05  nbox=  9
     iter. #   587  RMS(g-h-1)= 2.573E-05  nbox= 10
     iter. #   588  RMS(g-h-1)= 2.567E-05  nbox= 11
     iter. #   589  RMS(g-h-1)= 2.560E-05  nbox= 12
     iter. #   590  RMS(g-h-1)= 2.554E-05  nbox= 13
     iter. #   591  RMS(g-h-1)= 2.550E-05  nbox= 14
     iter. #   592  RMS(g-h-1)= 2.543E-05  nbox= 15
     iter. #   593  RMS(g-h-1)= 2.536E-05  nbox= 16
     iter. #   594  RMS(g-h-1)= 2.532E-05  nbox= 17
     iter. #   595  RMS(g-h-1)= 2.531E-05  nbox=  2
     iter. #   596  RMS(g-h-1)= 2.524E-05  nbox=  3
     iter. #   597  RMS(g-h-1)= 2.520E-05  nbox=  4
     iter. #   598  RMS(g-h-1)= 2.516E-05  nbox=  5
     iter. #   599  RMS(g-h-1)= 2.512E-05  nbox=  6
     iter. #   600  RMS(g-h-1)= 2.509E-05  nbox=  7
     iter. #   601  RMS(g-h-1)= 2.506E-05  nbox=  8
     iter. #   602  RMS(g-h-1)= 2.502E-05  nbox=  9
     iter. #   603  RMS(g-h-1)= 2.498E-05  nbox= 10
     iter. #   604  RMS(g-h-1)= 2.493E-05  nbox= 11
     iter. #   605  RMS(g-h-1)= 2.489E-05  nbox= 12
     iter. #   606  RMS(g-h-1)= 2.483E-05  nbox= 13
     iter. #   607  RMS(g-h-1)= 2.479E-05  nbox= 14
     iter. #   608  RMS(g-h-1)= 2.474E-05  nbox= 15
     iter. #   609  RMS(g-h-1)= 2.472E-05  nbox= 16
     iter. #   610  RMS(g-h-1)= 2.468E-05  nbox= 17
     iter. #   611  RMS(g-h-1)= 2.467E-05  nbox=  2
     iter. #   612  RMS(g-h-1)= 2.462E-05  nbox=  3
     iter. #   613  RMS(g-h-1)= 2.457E-05  nbox=  4
     iter. #   614  RMS(g-h-1)= 2.453E-05  nbox=  5
     iter. #   615  RMS(g-h-1)= 2.449E-05  nbox=  6
     iter. #   616  RMS(g-h-1)= 2.445E-05  nbox=  7
     iter. #   617  RMS(g-h-1)= 2.441E-05  nbox=  8
     iter. #   618  RMS(g-h-1)= 2.438E-05  nbox=  9
     iter. #   619  RMS(g-h-1)= 2.434E-05  nbox= 10
     iter. #   620  RMS(g-h-1)= 2.428E-05  nbox= 11
     iter. #   621  RMS(g-h-1)= 2.424E-05  nbox= 12
     iter. #   622  RMS(g-h-1)= 2.419E-05  nbox= 13
     iter. #   623  RMS(g-h-1)= 2.417E-05  nbox= 14
     iter. #   624  RMS(g-h-1)= 2.411E-05  nbox= 15
     iter. #   625  RMS(g-h-1)= 2.406E-05  nbox= 16
     iter. #   626  RMS(g-h-1)= 2.400E-05  nbox= 17
     iter. #   627  RMS(g-h-1)= 2.399E-05  nbox=  2
     iter. #   628  RMS(g-h-1)= 2.392E-05  nbox=  3
     iter. #   629  RMS(g-h-1)= 2.386E-05  nbox=  4
     iter. #   630  RMS(g-h-1)= 2.379E-05  nbox=  5
     iter. #   631  RMS(g-h-1)= 2.372E-05  nbox=  6
     iter. #   632  RMS(g-h-1)= 2.365E-05  nbox=  7
     iter. #   633  RMS(g-h-1)= 2.363E-05  nbox=  8
     iter. #   634  RMS(g-h-1)= 2.354E-05  nbox=  9
     iter. #   635  RMS(g-h-1)= 2.347E-05  nbox= 10
     iter. #   636  RMS(g-h-1)= 2.339E-05  nbox= 11
     iter. #   637  RMS(g-h-1)= 2.330E-05  nbox= 12
     iter. #   638  RMS(g-h-1)= 2.321E-05  nbox= 13
     iter. #   639  RMS(g-h-1)= 2.319E-05  nbox= 14
     iter. #   640  RMS(g-h-1)= 2.308E-05  nbox= 15
     iter. #   641  RMS(g-h-1)= 2.298E-05  nbox= 16
     iter. #   642  RMS(g-h-1)= 2.287E-05  nbox= 17
     iter. #   643  RMS(g-h-1)= 2.283E-05  nbox=  2
     iter. #   644  RMS(g-h-1)= 2.268E-05  nbox=  3
     iter. #   645  RMS(g-h-1)= 2.256E-05  nbox=  4
     iter. #   646  RMS(g-h-1)= 2.244E-05  nbox=  5
     iter. #   647  RMS(g-h-1)= 2.234E-05  nbox=  6
     iter. #   648  RMS(g-h-1)= 2.228E-05  nbox=  7
     iter. #   649  RMS(g-h-1)= 2.217E-05  nbox=  8
     iter. #   650  RMS(g-h-1)= 2.207E-05  nbox=  9
     iter. #   651  RMS(g-h-1)= 2.196E-05  nbox= 10
     iter. #   652  RMS(g-h-1)= 2.186E-05  nbox= 11
     iter. #   653  RMS(g-h-1)= 2.175E-05  nbox= 12
     iter. #   654  RMS(g-h-1)= 2.164E-05  nbox= 13
     iter. #   655  RMS(g-h-1)= 2.154E-05  nbox= 14
     iter. #   656  RMS(g-h-1)= 2.148E-05  nbox= 15
     iter. #   657  RMS(g-h-1)= 2.136E-05  nbox= 16
     iter. #   658  RMS(g-h-1)= 2.123E-05  nbox= 17
     iter. #   659  RMS(g-h-1)= 2.121E-05  nbox=  2
     iter. #   660  RMS(g-h-1)= 2.107E-05  nbox=  3
     iter. #   661  RMS(g-h-1)= 2.096E-05  nbox=  4
     iter. #   662  RMS(g-h-1)= 2.086E-05  nbox=  5
     iter. #   663  RMS(g-h-1)= 2.077E-05  nbox=  6
     iter. #   664  RMS(g-h-1)= 2.074E-05  nbox=  7
     iter. #   665  RMS(g-h-1)= 2.064E-05  nbox=  8
     iter. #   666  RMS(g-h-1)= 2.054E-05  nbox=  9
     iter. #   667  RMS(g-h-1)= 2.044E-05  nbox= 10
     iter. #   668  RMS(g-h-1)= 2.040E-05  nbox= 11
     iter. #   669  RMS(g-h-1)= 2.029E-05  nbox= 12
     iter. #   670  RMS(g-h-1)= 2.021E-05  nbox= 13
     iter. #   671  RMS(g-h-1)= 2.009E-05  nbox= 14
     iter. #   672  RMS(g-h-1)= 1.997E-05  nbox= 15
     iter. #   673  RMS(g-h-1)= 1.986E-05  nbox= 16
     iter. #   674  RMS(g-h-1)= 1.972E-05  nbox= 17
     iter. #   675  RMS(g-h-1)= 1.970E-05  nbox=  2
     iter. #   676  RMS(g-h-1)= 1.955E-05  nbox=  3
     iter. #   677  RMS(g-h-1)= 1.941E-05  nbox=  4
     iter. #   678  RMS(g-h-1)= 1.925E-05  nbox=  5
     iter. #   679  RMS(g-h-1)= 1.914E-05  nbox=  6
     iter. #   680  RMS(g-h-1)= 1.902E-05  nbox=  7
     iter. #   681  RMS(g-h-1)= 1.887E-05  nbox=  8
     iter. #   682  RMS(g-h-1)= 1.872E-05  nbox=  9
     iter. #   683  RMS(g-h-1)= 1.854E-05  nbox= 10
     iter. #   684  RMS(g-h-1)= 1.840E-05  nbox= 11
     iter. #   685  RMS(g-h-1)= 1.820E-05  nbox= 12
     iter. #   686  RMS(g-h-1)= 1.805E-05  nbox= 13
     iter. #   687  RMS(g-h-1)= 1.796E-05  nbox= 14
     iter. #   688  RMS(g-h-1)= 1.773E-05  nbox= 15
     iter. #   689  RMS(g-h-1)= 1.753E-05  nbox= 16
     iter. #   690  RMS(g-h-1)= 1.732E-05  nbox= 17
     iter. #   691  RMS(g-h-1)= 1.727E-05  nbox=  2
     iter. #   692  RMS(g-h-1)= 1.702E-05  nbox=  3
     iter. #   693  RMS(g-h-1)= 1.681E-05  nbox=  4
     iter. #   694  RMS(g-h-1)= 1.663E-05  nbox=  5
     iter. #   695  RMS(g-h-1)= 1.646E-05  nbox=  6
     iter. #   696  RMS(g-h-1)= 1.635E-05  nbox=  7
     iter. #   697  RMS(g-h-1)= 1.613E-05  nbox=  8
     iter. #   698  RMS(g-h-1)= 1.592E-05  nbox=  9
     iter. #   699  RMS(g-h-1)= 1.571E-05  nbox= 10
     iter. #   700  RMS(g-h-1)= 1.554E-05  nbox= 11
     iter. #   701  RMS(g-h-1)= 1.536E-05  nbox= 12
     iter. #   702  RMS(g-h-1)= 1.522E-05  nbox= 13
     iter. #   703  RMS(g-h-1)= 1.512E-05  nbox= 14
     iter. #   704  RMS(g-h-1)= 1.495E-05  nbox= 15
     iter. #   705  RMS(g-h-1)= 1.480E-05  nbox= 16
     iter. #   706  RMS(g-h-1)= 1.465E-05  nbox= 17
     iter. #   707  RMS(g-h-1)= 1.461E-05  nbox=  2
     iter. #   708  RMS(g-h-1)= 1.446E-05  nbox=  3
     iter. #   709  RMS(g-h-1)= 1.430E-05  nbox=  4
     iter. #   710  RMS(g-h-1)= 1.418E-05  nbox=  5
     iter. #   711  RMS(g-h-1)= 1.404E-05  nbox=  6
     iter. #   712  RMS(g-h-1)= 1.401E-05  nbox=  7
     iter. #   713  RMS(g-h-1)= 1.387E-05  nbox=  8
     iter. #   714  RMS(g-h-1)= 1.377E-05  nbox=  9
     iter. #   715  RMS(g-h-1)= 1.367E-05  nbox= 10
     iter. #   716  RMS(g-h-1)= 1.358E-05  nbox= 11
     iter. #   717  RMS(g-h-1)= 1.346E-05  nbox= 12
     iter. #   718  RMS(g-h-1)= 1.341E-05  nbox= 13
     iter. #   719  RMS(g-h-1)= 1.331E-05  nbox= 14
     iter. #   720  RMS(g-h-1)= 1.326E-05  nbox= 15
     iter. #   721  RMS(g-h-1)= 1.315E-05  nbox= 16
     iter. #   722  RMS(g-h-1)= 1.308E-05  nbox= 17
     iter. #   723  RMS(g-h-1)= 1.305E-05  nbox=  2
     iter. #   724  RMS(g-h-1)= 1.296E-05  nbox=  3
     iter. #   725  RMS(g-h-1)= 1.289E-05  nbox=  4
     iter. #   726  RMS(g-h-1)= 1.283E-05  nbox=  5
     iter. #   727  RMS(g-h-1)= 1.276E-05  nbox=  6
     iter. #   728  RMS(g-h-1)= 1.276E-05  nbox=  7
     iter. #   729  RMS(g-h-1)= 1.268E-05  nbox=  8
     iter. #   730  RMS(g-h-1)= 1.263E-05  nbox=  9
     iter. #   731  RMS(g-h-1)= 1.257E-05  nbox= 10
     iter. #   732  RMS(g-h-1)= 1.252E-05  nbox= 11
     iter. #   733  RMS(g-h-1)= 1.245E-05  nbox= 12
     iter. #   734  RMS(g-h-1)= 1.240E-05  nbox= 13
     iter. #   735  RMS(g-h-1)= 1.233E-05  nbox= 14
     iter. #   736  RMS(g-h-1)= 1.231E-05  nbox= 15
     iter. #   737  RMS(g-h-1)= 1.222E-05  nbox= 16
     iter. #   738  RMS(g-h-1)= 1.215E-05  nbox= 17
     iter. #   739  RMS(g-h-1)= 1.213E-05  nbox=  2
     iter. #   740  RMS(g-h-1)= 1.206E-05  nbox=  3
     iter. #   741  RMS(g-h-1)= 1.198E-05  nbox=  4
     iter. #   742  RMS(g-h-1)= 1.192E-05  nbox=  5
     iter. #   743  RMS(g-h-1)= 1.184E-05  nbox=  6
     iter. #   744  RMS(g-h-1)= 1.181E-05  nbox=  7
     iter. #   745  RMS(g-h-1)= 1.172E-05  nbox=  8
     iter. #   746  RMS(g-h-1)= 1.164E-05  nbox=  9
     iter. #   747  RMS(g-h-1)= 1.154E-05  nbox= 10
     iter. #   748  RMS(g-h-1)= 1.145E-05  nbox= 11
     iter. #   749  RMS(g-h-1)= 1.137E-05  nbox= 12
     iter. #   750  RMS(g-h-1)= 1.129E-05  nbox= 13
     iter. #   751  RMS(g-h-1)= 1.124E-05  nbox= 14
     iter. #   752  RMS(g-h-1)= 1.117E-05  nbox= 15
     iter. #   753  RMS(g-h-1)= 1.108E-05  nbox= 16
     iter. #   754  RMS(g-h-1)= 1.098E-05  nbox= 17
     iter. #   755  RMS(g-h-1)= 1.096E-05  nbox=  2
     iter. #   756  RMS(g-h-1)= 1.084E-05  nbox=  3
     iter. #   757  RMS(g-h-1)= 1.073E-05  nbox=  4
     iter. #   758  RMS(g-h-1)= 1.064E-05  nbox=  5
     iter. #   759  RMS(g-h-1)= 1.054E-05  nbox=  6
     iter. #   760  RMS(g-h-1)= 1.045E-05  nbox=  7
     iter. #   761  RMS(g-h-1)= 1.032E-05  nbox=  8
     iter. #   762  RMS(g-h-1)= 1.020E-05  nbox=  9
     iter. #   763  RMS(g-h-1)= 1.010E-05  nbox= 10
     iter. #   764  RMS(g-h-1)= 9.999E-06  nbox= 11
     iter. #   765  RMS(g-h-1)= 9.909E-06  nbox= 12
     iter. #   766  RMS(g-h-1)= 9.797E-06  nbox= 13
     iter. #   767  RMS(g-h-1)= 9.808E-06  nbox= 14
     iter. #   768  RMS(g-h-1)= 9.668E-06  nbox= 15
     iter. #   769  RMS(g-h-1)= 9.594E-06  nbox= 16
     iter. #   770  RMS(g-h-1)= 9.506E-06  nbox= 17
     iter. #   771  RMS(g-h-1)= 9.499E-06  nbox=  2
     iter. #   772  RMS(g-h-1)= 9.387E-06  nbox=  3
     iter. #   773  RMS(g-h-1)= 9.306E-06  nbox=  4
     iter. #   774  RMS(g-h-1)= 9.240E-06  nbox=  5
     iter. #   775  RMS(g-h-1)= 9.185E-06  nbox=  6
     iter. #   776  RMS(g-h-1)= 9.122E-06  nbox=  7
     iter. #   777  RMS(g-h-1)= 9.037E-06  nbox=  8
     iter. #   778  RMS(g-h-1)= 8.956E-06  nbox=  9
     iter. #   779  RMS(g-h-1)= 8.886E-06  nbox= 10
     iter. #   780  RMS(g-h-1)= 8.807E-06  nbox= 11
     iter. #   781  RMS(g-h-1)= 8.725E-06  nbox= 12
     iter. #   782  RMS(g-h-1)= 8.692E-06  nbox= 13
     iter. #   783  RMS(g-h-1)= 8.587E-06  nbox= 14
     iter. #   784  RMS(g-h-1)= 8.580E-06  nbox= 15
     iter. #   785  RMS(g-h-1)= 8.496E-06  nbox= 16
     iter. #   786  RMS(g-h-1)= 8.433E-06  nbox= 17
     iter. #   787  RMS(g-h-1)= 8.415E-06  nbox=  2
     iter. #   788  RMS(g-h-1)= 8.339E-06  nbox=  3
     iter. #   789  RMS(g-h-1)= 8.264E-06  nbox=  4
     iter. #   790  RMS(g-h-1)= 8.190E-06  nbox=  5
     iter. #   791  RMS(g-h-1)= 8.124E-06  nbox=  6
     iter. #   792  RMS(g-h-1)= 8.073E-06  nbox=  7
     iter. #   793  RMS(g-h-1)= 8.015E-06  nbox=  8
     iter. #   794  RMS(g-h-1)= 7.937E-06  nbox=  9
     iter. #   795  RMS(g-h-1)= 7.864E-06  nbox= 10
     iter. #   796  RMS(g-h-1)= 7.793E-06  nbox= 11
     iter. #   797  RMS(g-h-1)= 7.732E-06  nbox= 12
     iter. #   798  RMS(g-h-1)= 7.661E-06  nbox= 13
     iter. #   799  RMS(g-h-1)= 7.596E-06  nbox= 14
     iter. #   800  RMS(g-h-1)= 7.567E-06  nbox= 15
     iter. #   801  RMS(g-h-1)= 7.508E-06  nbox= 16
     iter. #   802  RMS(g-h-1)= 7.456E-06  nbox= 17
     iter. #   803  RMS(g-h-1)= 7.442E-06  nbox=  2
     iter. #   804  RMS(g-h-1)= 7.381E-06  nbox=  3
     iter. #   805  RMS(g-h-1)= 7.317E-06  nbox=  4
     iter. #   806  RMS(g-h-1)= 7.267E-06  nbox=  5
     iter. #   807  RMS(g-h-1)= 7.214E-06  nbox=  6
     iter. #   808  RMS(g-h-1)= 7.192E-06  nbox=  7
     iter. #   809  RMS(g-h-1)= 7.144E-06  nbox=  8
     iter. #   810  RMS(g-h-1)= 7.091E-06  nbox=  9
     iter. #   811  RMS(g-h-1)= 7.041E-06  nbox= 10
     iter. #   812  RMS(g-h-1)= 6.994E-06  nbox= 11
     iter. #   813  RMS(g-h-1)= 6.944E-06  nbox= 12
     iter. #   814  RMS(g-h-1)= 6.897E-06  nbox= 13
     iter. #   815  RMS(g-h-1)= 6.856E-06  nbox= 14
     iter. #   816  RMS(g-h-1)= 6.822E-06  nbox= 15
     iter. #   817  RMS(g-h-1)= 6.766E-06  nbox= 16
     iter. #   818  RMS(g-h-1)= 6.709E-06  nbox= 17
     iter. #   819  RMS(g-h-1)= 6.696E-06  nbox=  2
     iter. #   820  RMS(g-h-1)= 6.634E-06  nbox=  3
     iter. #   821  RMS(g-h-1)= 6.563E-06  nbox=  4
     iter. #   822  RMS(g-h-1)= 6.588E-06  nbox=  5
     iter. #   823  RMS(g-h-1)= 6.457E-06  nbox=  6
     iter. #   824  RMS(g-h-1)= 6.484E-06  nbox=  7
     iter. #   825  RMS(g-h-1)= 6.398E-06  nbox=  8
     iter. #   826  RMS(g-h-1)= 6.355E-06  nbox=  9
     iter. #   827  RMS(g-h-1)= 6.307E-06  nbox= 10

     End of Laue-RISM calculation


     convergence has been achieved in   827 iterations


     solvent charge    0.00429, renormalised to    0.00000

     Total number of solvent (in expand-cell)
     H2O           97.476652
     K+             1.613079
     OH-            1.611005

     Total charge of solvent (in expand-cell)
     H2O            0.000275 e
     K+             1.613079 e
     OH-           -1.609060 e
     Total          0.004295 e

     Chemical potential of solvation (in expand-cell)
     H2O        GaussFluct   0.166907E+01 kcal/mol
     K+         GaussFluct   0.185462E+01 kcal/mol
     OH-        GaussFluct  -0.124240E+01 kcal/mol
     Total      GaussFluct   0.228129E+01 kcal/mol

     Starting wfc are  332 randomized atomic wfcs
     Checking if some PAW data can be deallocated... 
       node    0, deallocated PAW data for type:  2
       node    0, deallocated PAW data for type:  3
       node    1, deallocated PAW data for type:  2
       node    1, deallocated PAW data for type:  3
       node    2, deallocated PAW data for type:  2
       node    2, deallocated PAW data for type:  3
       node    3, deallocated PAW data for type:  2
       node    3, deallocated PAW data for type:  3
       node    4, deallocated PAW data for type:  2
       node    4, deallocated PAW data for type:  3
       node    5, deallocated PAW data for type:  2
       node    5, deallocated PAW data for type:  3
       node    6, deallocated PAW data for type:  2
       node    6, deallocated PAW data for type:  3
       node    7, deallocated PAW data for type:  2
       node    7, deallocated PAW data for type:  3
       node    8, deallocated PAW data for type:  2
       node    8, deallocated PAW data for type:  3
       node    9, deallocated PAW data for type:  2
       node    9, deallocated PAW data for type:  3
       node   10, deallocated PAW data for type:  2
       node   10, deallocated PAW data for type:  3
       node   11, deallocated PAW data for type:  2
       node   11, deallocated PAW data for type:  3
       node   12, deallocated PAW data for type:  2
       node   12, deallocated PAW data for type:  3
       node   13, deallocated PAW data for type:  2
       node   13, deallocated PAW data for type:  3
       node   14, deallocated PAW data for type:  2
       node   14, deallocated PAW data for type:  3
       node   15, deallocated PAW data for type:  2
       node   15, deallocated PAW data for type:  3
       node   16, deallocated PAW data for type:  2
       node   16, deallocated PAW data for type:  3
       node   17, deallocated PAW data for type:  2
       node   17, deallocated PAW data for type:  3
       node   18, deallocated PAW data for type:  2
       node   18, deallocated PAW data for type:  3
       node   19, deallocated PAW data for type:  2
       node   19, deallocated PAW data for type:  3
       node   20, deallocated PAW data for type:  2
       node   20, deallocated PAW data for type:  3
       node   21, deallocated PAW data for type:  2
       node   21, deallocated PAW data for type:  3
       node   22, deallocated PAW data for type:  2
       node   22, deallocated PAW data for type:  3
       node   23, deallocated PAW data for type:  2
       node   23, deallocated PAW data for type:  3
       node   24, deallocated PAW data for type:  2
       node   24, deallocated PAW data for type:  3
       node   25, deallocated PAW data for type:  2
       node   25, deallocated PAW data for type:  3
       node   26, deallocated PAW data for type:  2
       node   26, deallocated PAW data for type:  3
       node   27, deallocated PAW data for type:  2
       node   27, deallocated PAW data for type:  3
       node   28, deallocated PAW data for type:  2
       node   28, deallocated PAW data for type:  3
       node   29, deallocated PAW data for type:  2
       node   29, deallocated PAW data for type:  3
       node   30, deallocated PAW data for type:  2
       node   30, deallocated PAW data for type:  3
       node   31, deallocated PAW data for type:  2
       node   31, deallocated PAW data for type:  3
       node   32, deallocated PAW data for type:  2
       node   32, deallocated PAW data for type:  3
       node   33, deallocated PAW data for type:  2
[...]
     atom   19 type  1   force =    -0.00079988   -0.04942462   61.63595971
     atom   20 type  1   force =    -0.20999525   -0.12169835   65.56305179
     atom   21 type  1   force =     0.21086400   -0.12135855   65.56487100
     atom   22 type  1   force =     0.01516118   -0.00863518   62.69749681
     atom   23 type  1   force =     0.00073226    0.24300043   65.56395525
     atom   24 type  1   force =    -0.01585406   -0.00924180   62.69882580
     atom   25 type  1   force =     0.04268170    0.02512283   61.63603518
     atom   26 type  1   force =    -0.04286418    0.02430159   61.63584023
     atom   27 type  1   force =     0.00018150    0.01792624   62.69815990
     atom   28 type  1   force =    -0.00224951   -0.00002365  203.68840974
     atom   29 type  1   force =    -0.59523167   -0.75643035  202.92954776
     atom   30 type  1   force =     0.59727318   -0.75068495  202.93489788
     atom   31 type  1   force =    -0.95468326   -0.13960946  202.92677047
     atom   32 type  1   force =     0.01022426   -0.00000378  203.56260221
     atom   33 type  1   force =     0.94673995   -0.13963069  202.93760457
     atom   34 type  1   force =    -0.35344636    0.89605980  202.92948131
     atom   35 type  1   force =     0.35545130    0.89029349  202.93495071
     atom   36 type  1   force =    -0.00224953    0.00003783  204.43256292
     atom   37 type  2   force =     0.08690224    0.00001454   93.27944648
     atom   38 type  3   force =    -0.08884424   -0.00002436  164.32226915
     The local contribution  to forces
     atom    1 type  1   force =     0.00000055   -0.00003419  217.60713263
     atom    2 type  1   force =     0.02316587   -0.02511094  217.76108438
     atom    3 type  1   force =    -0.02316760   -0.02519772  217.76105897
     atom    4 type  1   force =    -0.01011999    0.03264184  217.76113236
     atom    5 type  1   force =    -0.00010786    0.00000180  217.72428692
     atom    6 type  1   force =     0.01022506    0.03260871  217.76105359
     atom    7 type  1   force =    -0.03336435   -0.00750664  217.76111110
     atom    8 type  1   force =     0.03331230   -0.00744102  217.76105944
     atom    9 type  1   force =     0.00004410    0.00002844  217.84869291
     atom   10 type  1   force =     0.02256435    0.01305249   77.50413180
     atom   11 type  1   force =    -0.00012478   -0.16357590   77.20036920
     atom   12 type  1   force =    -0.02243836    0.01298600   77.50405238
     atom   13 type  1   force =    -0.14174017    0.08176864   77.20051390
     atom   14 type  1   force =     0.14163084    0.08185160   77.20023503
     atom   15 type  1   force =     0.00009713    0.09684171   77.81440301
     atom   16 type  1   force =     0.00000716   -0.02601686   77.50405424
     atom   17 type  1   force =     0.08385901   -0.04839661   77.81432400
     atom   18 type  1   force =    -0.08386529   -0.04851034   77.81437148
     atom   19 type  1   force =     0.00083659    0.04466174  -61.66058634
     atom   20 type  1   force =     0.22338894    0.12940205  -65.56604499
     atom   21 type  1   force =    -0.22424683    0.12911426  -65.56771439
     atom   22 type  1   force =    -0.02311137    0.01323331  -62.72604065
     atom   23 type  1   force =    -0.00068186   -0.25846017  -65.56687372
     atom   24 type  1   force =     0.02373475    0.01378376  -62.72739354
     atom   25 type  1   force =    -0.03856102   -0.02276476  -61.66067743
     atom   26 type  1   force =     0.03873578   -0.02189664  -61.66045028
     atom   27 type  1   force =    -0.00016766   -0.02706632  -62.72671595
     atom   28 type  1   force =     0.00220990    0.00002403 -203.71951167
     atom   29 type  1   force =     0.57663798    0.72591806 -203.01021636
     atom   30 type  1   force =    -0.57857727    0.71980209 -203.01580890
     atom   31 type  1   force =     0.91914675    0.13880723 -203.00731405
     atom   32 type  1   force =    -0.01095117    0.00000400 -203.59061559
     atom   33 type  1   force =    -0.91046046    0.13883765 -203.01864106
     atom   34 type  1   force =     0.33623820   -0.86474728 -203.01014564
     atom   35 type  1   force =    -0.33813347   -0.85861595 -203.01586525
     atom   36 type  1   force =     0.00222115   -0.00003815 -204.46466339
     atom   37 type  2   force =    -0.07962257   -0.00001237  -94.15980517
     atom   38 type  3   force =     0.06425830    0.00001829 -161.56918970
     The core correction contribution to forces
     atom    1 type  1   force =     0.00000117   -0.00000011    0.01936614
     atom    2 type  1   force =    -0.00022542    0.00004464    0.01940568
     atom    3 type  1   force =     0.00022352    0.00004005    0.01940559
     atom    4 type  1   force =    -0.00007367   -0.00021506    0.01940643
     atom    5 type  1   force =    -0.00000431    0.00000005    0.01895046
     atom    6 type  1   force =     0.00007749   -0.00021632    0.01940526
     atom    7 type  1   force =     0.00014704    0.00017161    0.01940608
     atom    8 type  1   force =    -0.00015112    0.00017493    0.01940508
     atom    9 type  1   force =     0.00000370    0.00000008    0.01978427
     atom   10 type  1   force =     0.00024711    0.00014264    0.00010442
     atom   11 type  1   force =    -0.00000363   -0.00063791   -0.00036611
     atom   12 type  1   force =    -0.00024443    0.00014123    0.00009829
     atom   13 type  1   force =    -0.00055237    0.00031686   -0.00036747
     atom   14 type  1   force =     0.00055267    0.00032133   -0.00036464
     atom   15 type  1   force =    -0.00000090    0.00028213    0.00066539
     atom   16 type  1   force =     0.00000005   -0.00028383    0.00010142
     atom   17 type  1   force =     0.00024414   -0.00014145    0.00066629
     atom   18 type  1   force =    -0.00024466   -0.00014078    0.00066471
     atom   19 type  1   force =    -0.00000445   -0.00034866   -0.00017904
     atom   20 type  1   force =     0.00158051    0.00091084    0.00097919
     atom   21 type  1   force =    -0.00157116    0.00090890    0.00095874
     atom   22 type  1   force =     0.00008313   -0.00004625    0.00047711
     atom   23 type  1   force =     0.00000302   -0.00181948    0.00096898
     atom   24 type  1   force =    -0.00008683   -0.00005188    0.00048211
     atom   25 type  1   force =     0.00030031    0.00017590   -0.00017908
     atom   26 type  1   force =    -0.00030389    0.00017284   -0.00017887
     atom   27 type  1   force =     0.00000298    0.00009811    0.00047952
     atom   28 type  1   force =    -0.00000117   -0.00000007   -0.01963602
     atom   29 type  1   force =    -0.00087915   -0.00168816   -0.02007966
     atom   30 type  1   force =     0.00088015   -0.00170239   -0.02008039
     atom   31 type  1   force =    -0.00189739    0.00008505   -0.02007650
     atom   32 type  1   force =     0.00005059   -0.00000010    0.02504449
     atom   33 type  1   force =     0.00191834    0.00008655   -0.02008362
     atom   34 type  1   force =    -0.00102814    0.00160477   -0.02007696
     atom   35 type  1   force =     0.00102813    0.00161431   -0.02008311
     atom   36 type  1   force =    -0.00000291    0.00000005   -0.02027519
     atom   37 type  2   force =     0.00016702    0.00000021   -0.01714646
     atom   38 type  3   force =    -0.00020469   -0.00000010    0.02244638
     The Hubbard contrib.    to forces
     atom    1 type  1   force =     0.00000000    0.00000000    0.00000000
     atom    2 type  1   force =     0.00000000    0.00000000    0.00000000
     atom    3 type  1   force =     0.00000000    0.00000000    0.00000000
     atom    4 type  1   force =     0.00000000    0.00000000    0.00000000
     atom    5 type  1   force =     0.00000000    0.00000000    0.00000000
     atom    6 type  1   force =     0.00000000    0.00000000    0.00000000
     atom    7 type  1   force =     0.00000000    0.00000000    0.00000000
     atom    8 type  1   force =     0.00000000    0.00000000    0.00000000
     atom    9 type  1   force =     0.00000000    0.00000000    0.00000000
     atom   10 type  1   force =     0.00000000    0.00000000    0.00000000
     atom   11 type  1   force =     0.00000000    0.00000000    0.00000000
     atom   12 type  1   force =     0.00000000    0.00000000    0.00000000
     atom   13 type  1   force =     0.00000000    0.00000000    0.00000000
     atom   14 type  1   force =     0.00000000    0.00000000    0.00000000
     atom   15 type  1   force =     0.00000000    0.00000000    0.00000000
     atom   16 type  1   force =     0.00000000    0.00000000    0.00000000
     atom   17 type  1   force =     0.00000000    0.00000000    0.00000000
     atom   18 type  1   force =     0.00000000    0.00000000    0.00000000
     atom   19 type  1   force =     0.00000000    0.00000000    0.00000000
     atom   20 type  1   force =     0.00000000    0.00000000    0.00000000
     atom   21 type  1   force =     0.00000000    0.00000000    0.00000000
     atom   22 type  1   force =     0.00000000    0.00000000    0.00000000
     atom   23 type  1   force =     0.00000000    0.00000000    0.00000000
     atom   24 type  1   force =     0.00000000    0.00000000    0.00000000
     atom   25 type  1   force =     0.00000000    0.00000000    0.00000000
     atom   26 type  1   force =     0.00000000    0.00000000    0.00000000
     atom   27 type  1   force =     0.00000000    0.00000000    0.00000000
     atom   28 type  1   force =     0.00000000    0.00000000    0.00000000
     atom   29 type  1   force =     0.00000000    0.00000000    0.00000000
     atom   30 type  1   force =     0.00000000    0.00000000    0.00000000
     atom   31 type  1   force =     0.00000000    0.00000000    0.00000000
     atom   32 type  1   force =     0.00000000    0.00000000    0.00000000
     atom   33 type  1   force =     0.00000000    0.00000000    0.00000000
     atom   34 type  1   force =     0.00000000    0.00000000    0.00000000
     atom   35 type  1   force =     0.00000000    0.00000000    0.00000000
     atom   36 type  1   force =     0.00000000    0.00000000    0.00000000
     atom   37 type  2   force =     0.00000000    0.00000000    0.00000000
     atom   38 type  3   force =     0.00000000    0.00000000    0.00000000
     The SCF correction term to forces
     atom    1 type  1   force =     0.00000000    0.00000000    0.00000000
     atom    2 type  1   force =     0.00000000    0.00000000    0.00000000
     atom    3 type  1   force =     0.00000000    0.00000000    0.00000000
     atom    4 type  1   force =     0.00000000    0.00000000    0.00000000
     atom    5 type  1   force =     0.00000000    0.00000000    0.00000000
     atom    6 type  1   force =     0.00000000    0.00000000    0.00000000
     atom    7 type  1   force =     0.00000000    0.00000000    0.00000000
     atom    8 type  1   force =     0.00000000    0.00000000    0.00000000
     atom    9 type  1   force =     0.00000000    0.00000000    0.00000000
     atom   10 type  1   force =     0.00000047    0.00000021    0.00000066
     atom   11 type  1   force =     0.00000012   -0.00000057    0.00000128
     atom   12 type  1   force =    -0.00000054    0.00000013    0.00000064
     atom   13 type  1   force =    -0.00000033    0.00000042    0.00000127
     atom   14 type  1   force =     0.00000038    0.00000029    0.00000128
     atom   15 type  1   force =    -0.00000005    0.00000123    0.00000050
     atom   16 type  1   force =    -0.00000014   -0.00000059    0.00000075
     atom   17 type  1   force =     0.00000096   -0.00000060    0.00000065
     atom   18 type  1   force =    -0.00000090   -0.00000050    0.00000059
     atom   19 type  1   force =    -0.00000007    0.00000064    0.00000201
     atom   20 type  1   force =     0.00000033    0.00000016    0.00000182
     atom   21 type  1   force =    -0.00000022   -0.00000007    0.00000181
     atom   22 type  1   force =    -0.00000017    0.00000050    0.00000166
     atom   23 type  1   force =    -0.00000010   -0.00000003    0.00000183
     atom   24 type  1   force =     0.00000031    0.00000036    0.00000152
     atom   25 type  1   force =    -0.00000074   -0.00000054    0.00000220
     atom   26 type  1   force =     0.00000059   -0.00000054    0.00000202
     atom   27 type  1   force =     0.00000018   -0.00000048    0.00000161
     atom   28 type  1   force =    -0.00000033   -0.00000034    0.00000182
     atom   29 type  1   force =     0.00000018   -0.00000037    0.00000070
     atom   30 type  1   force =     0.00000013   -0.00000060    0.00000083
     atom   31 type  1   force =    -0.00000013    0.00000027    0.00000074
     atom   32 type  1   force =     0.00000005    0.00000003    0.00000004
     atom   33 type  1   force =     0.00000017   -0.00000007    0.00000077
     atom   34 type  1   force =    -0.00000034    0.00000045    0.00000073
     atom   35 type  1   force =    -0.00000001    0.00000026    0.00000069
     atom   36 type  1   force =     0.00000032    0.00000029    0.00000076
     atom   37 type  2   force =     0.00000001    0.00000000   -0.00000066
     atom   38 type  3   force =     0.00000000    0.00000000   -0.00000126

     3D-RISM Solvation contribution to forces:
     atom    1 type  1   force =    -0.00000011    0.00000000    0.00000701
     atom    2 type  1   force =     0.00001191    0.00002341    0.00003108
     atom    3 type  1   force =    -0.00001179    0.00002362    0.00003133
     atom    4 type  1   force =     0.00002617   -0.00000148    0.00003098
     atom    5 type  1   force =     0.00000026    0.00000002    0.00008312
     atom    6 type  1   force =    -0.00002641   -0.00000148    0.00003151
     atom    7 type  1   force =     0.00001450   -0.00002192    0.00003110
     atom    8 type  1   force =    -0.00001437   -0.00002214    0.00003139
     atom    9 type  1   force =    -0.00000013   -0.00000002    0.00000191
     atom   10 type  1   force =     0.00014021    0.00008081    0.00003867
     atom   11 type  1   force =     0.00000134    0.00019924    0.00030721
     atom   12 type  1   force =    -0.00014145    0.00008189    0.00004117
     atom   13 type  1   force =     0.00017329   -0.00009926    0.00030566
     atom   14 type  1   force =    -0.00017172   -0.00009989    0.00030876
     atom   15 type  1   force =    -0.00000150   -0.00005356   -0.00004880
     atom   16 type  1   force =     0.00000032   -0.00016263    0.00003994
     atom   17 type  1   force =    -0.00004653    0.00002596   -0.00004863
     atom   18 type  1   force =     0.00004625    0.00002754   -0.00004896
     atom   19 type  1   force =    -0.00000940    0.00027150   -0.00044820
     atom   20 type  1   force =     0.00102598    0.00058671    0.00201647
     atom   21 type  1   force =    -0.00101524    0.00059180    0.00204256
     atom   22 type  1   force =     0.00116550   -0.00067118   -0.00007408
     atom   23 type  1   force =     0.00000978   -0.00117842    0.00202961
     atom   24 type  1   force =    -0.00117469   -0.00067985   -0.00006029
     atom   25 type  1   force =    -0.00023647   -0.00013108   -0.00044677
     atom   26 type  1   force =     0.00023373   -0.00014035   -0.00044964
     atom   27 type  1   force =     0.00000292    0.00135115   -0.00006717
     atom   28 type  1   force =    -0.00000424    0.00000001   -0.01741912
     atom   29 type  1   force =     0.00528380    0.01020326    0.00337185
     atom   30 type  1   force =    -0.00527556    0.01029260    0.00344245
     atom   31 type  1   force =     0.01143691   -0.00055005    0.00334157
     atom   32 type  1   force =     0.00015418    0.00000017    0.00841345
     atom   33 type  1   force =    -0.01159143   -0.00055408    0.00347090
     atom   34 type  1   force =     0.00623639   -0.00964881    0.00337792
     atom   35 type  1   force =    -0.00623565   -0.00974308    0.00343655
     atom   36 type  1   force =     0.00000300    0.00000002   -0.01934700
     atom   37 type  2   force =     0.00026373    0.00000010   -0.02151076
     atom   38 type  3   force =     0.00077551    0.00000018   -0.08234052

     Total force =     0.001185     Total SCF correction =     0.000008

     Total 3D-RISM Solvation Force =     0.094246

     Writing output data file Cu-vib.save
 
     init_run     :    375.29s CPU    190.38s WALL (       1 calls)
     electrons    :   6845.46s CPU   3486.01s WALL (       1 calls)
     forces       :     26.79s CPU     13.30s WALL (       1 calls)

     Called by init_run:
     wfcinit      :     58.90s CPU     30.56s WALL (       1 calls)
     wfcinit:atom :      0.02s CPU      0.02s WALL (      34 calls)
     wfcinit:wfcr :     58.57s CPU     30.22s WALL (      34 calls)
     potinit      :    307.77s CPU    155.15s WALL (       1 calls)

     Called by electrons:
     c_bands      :   3796.35s CPU   1946.32s WALL (      32 calls)
     sum_band     :    513.34s CPU    263.45s WALL (      32 calls)
     v_of_rho     :     40.24s CPU     20.88s WALL (      32 calls)
     v_h          :      0.50s CPU      0.50s WALL (      64 calls)
     v_xc         :     41.64s CPU     21.24s WALL (      33 calls)
     newd         :      2.21s CPU      1.16s WALL (      32 calls)
     PAW_pot      :      3.60s CPU      2.66s WALL (      32 calls)
     mix_rho      :      1.56s CPU      0.53s WALL (      32 calls)

     Called by c_bands:
     init_us_2    :      1.45s CPU      1.46s WALL (    2244 calls)
     crmmdiagg    :   2588.04s CPU   1259.14s WALL (    1088 calls)
     wfcrot       :   1200.09s CPU    676.76s WALL (    1054 calls)
     gsorth       :     63.84s CPU     38.25s WALL (    1088 calls)

     Called by sum_band:
     sum_band:bec :      1.75s CPU      1.16s WALL (    1088 calls)
     addusdens    :      1.15s CPU      1.15s WALL (      32 calls)

     Called by *rmmdiagg:
     h_psi        :   3436.50s CPU   1733.22s WALL (    9348 calls)
     s_psi        :     38.20s CPU     25.95s WALL (    9348 calls)
     cdiaghg      :    133.08s CPU     75.94s WALL (    1054 calls)
     cdiaghg:chol :      7.80s CPU      2.67s WALL (    1054 calls)
     cdiaghg:inve :      1.72s CPU      1.73s WALL (    1054 calls)
     cdiaghg:para :      4.73s CPU      1.66s WALL (    2108 calls)

     Called by h_psi:
     h_psi:pot    :   3435.20s CPU   1731.87s WALL (    9348 calls)
     h_psi:calbec :    111.78s CPU     65.07s WALL (    9348 calls)
     vloc_psi     :   3276.11s CPU   1639.94s WALL (    9348 calls)
     add_vuspsi   :     46.84s CPU     26.69s WALL (    9348 calls)

     General routines
     calbec       :    145.75s CPU     83.41s WALL (   10572 calls)
     fft          :     25.83s CPU     15.04s WALL (    2270 calls)
     ffts         :      0.15s CPU      0.15s WALL (      64 calls)
     fftw         :   3688.83s CPU   1842.09s WALL ( 1896524 calls)
     fftc         :      1.12s CPU      0.14s WALL (      64 calls)
     interpolate  :      0.56s CPU      0.57s WALL (      64 calls)
 
     Parallel routines
     fft_scatter  :   2409.24s CPU   1397.63s WALL ( 1994516 calls)

     PAW routines
     PAW_pot      :      3.60s CPU      2.66s WALL (      32 calls)

     RISM routines
     1DRISM_pre   :     28.58s CPU     14.19s WALL (       1 calls)
     1DRISM_run   :      0.11s CPU      1.17s WALL (       1 calls)
     3DRISM_pre   :     10.63s CPU      6.30s WALL (       1 calls)
     3DRISM_run   :   2779.96s CPU   1397.34s WALL (      32 calls)
     3DRISM_for   :      6.01s CPU      2.89s WALL (       1 calls)
     3DRISM_vsol  :      1.17s CPU      0.20s WALL (      32 calls)
 
     PWSCF        :     2h 3m CPU        1h 3m WALL

 
   This run was terminated on:  16:52:58  10Feb2026            

=------------------------------------------------------------------------------=
   JOB DONE.
=------------------------------------------------------------------------------=
