
     Program PWSCF v.6.1 starts on  9Feb2026 at 14: 0:21 

     This program is part of the open-source Quantum ESPRESSO suite
     for quantum simulation of materials; please cite
         "P. Giannozzi et al., J. Phys.:Condens. Matter 21 395502 (2009);
          URL http://www.quantum-espresso.org", 
     in publications or presentations arising from this work. More details at
     http://www.quantum-espresso.org/quote

     Parallel version (MPI & OpenMP), running on     192 processor cores
     Number of MPI processes:                96
     Threads/MPI process:                     2
     R & G space division:  proc/nbgrp/npool/nimage =      96
     Reading input from espresso.pwi
Warning: card &IONS ignored
Warning: card    ION_DYNAMICS     = 'BFGS' ignored
Warning: card / ignored
Warning: card &CELL ignored
Warning: card / ignored
Warning: card &FCP ignored
Warning: card / ignored
Warning: card &RISM ignored
Warning: card / ignored

     Current dimensions of program PWSCF are:
     Max number of different atomic species (ntypx) = 10
     Max number of k-points (npk) =  40000
     Max angular momentum in pseudopotentials (lmaxx) =  3

     IMPORTANT: XC functional enforced from input :
     Exchange-correlation      = VDW-DF2 ( 1  4 13  0 2 0)
     Any further DFT definition will be discarded
     Please, verify this is what you really want

               file O.pbe-n-kjpaw_psl.1.0.0.UPF: wavefunction(s)  2S 2P renormalized
               file H.pbe-kjpaw_psl.1.0.0.UPF: wavefunction(s)  1S renormalized

     Subspace diagonalization in iterative solution of the eigenvalue problem:
     one sub-group per band group will be used
     ELPA distributed-memory algorithm (size of sub-group:  6*  6 procs)

 
     Parallelization info
     --------------------
     sticks:   dense  smooth     PW     G-vecs:    dense   smooth      PW
     Min         740     296     74               148294    37508    4688
     Max         741     297     76               148300    37516    4690
     Sum       71041   28417   7129             14236565  3601159  450127
 


     bravais-lattice index     =            0
     lattice parameter (alat)  =      37.7945  a.u.
     unit-cell volume          =   53986.6738 (a.u.)^3
     number of atoms/cell      =            3
     number of atomic types    =            2
     number of electrons       =         8.00
     number of Kohn-Sham states=           40
     kinetic-energy cutoff     =      62.4738  Ry
     charge density cutoff     =     624.7385  Ry
     convergence threshold     =      7.3E-12
     mixing beta               =       0.3333
     number of iterations used =           12  plain     mixing
     Exchange-correlation      = VDW-DF2 ( 1  4 13  0 2 0)

     Effective Screening Medium Method
     =================================
     Boundary Conditions: Vacuum-Slab-Vacuum
     total charge in unit cell        =   0.0000
     grid points for fit at edges     =        4 
 

     celldm(1)=  37.794522  celldm(2)=   0.000000  celldm(3)=   0.000000
     celldm(4)=   0.000000  celldm(5)=   0.000000  celldm(6)=   0.000000

     crystal axes: (cart. coord. in units of alat)
               a(1) = (   1.000000   0.000000   0.000000 )  
               a(2) = (   0.000000   1.000000   0.000000 )  
               a(3) = (   0.000000   0.000000   1.000000 )  

     reciprocal axes: (cart. coord. in units 2 pi/alat)
               b(1) = (  1.000000  0.000000  0.000000 )  
               b(2) = (  0.000000  1.000000  0.000000 )  
               b(3) = (  0.000000  0.000000  1.000000 )  


     PseudoPot. # 1 for  O read from file:
     /work/gf93/f93007/QE/pseudo/O.pbe-n-kjpaw_psl.1.0.0.UPF
     MD5 check sum: c61d840054b6bba219e553541e327118
     Pseudo is Projector augmented-wave + core cor, Zval =  6.0
     Generated using "atomic" code by A. Dal Corso  v.6.1 svn rev. 13369
     Shape of augmentation charge: PSQ
     Using radial grid of 1095 points,  4 beta functions with: 
                l(1) =   0
                l(2) =   0
                l(3) =   1
                l(4) =   1
     Q(r) pseudized with 0 coefficients 


     PseudoPot. # 2 for  H read from file:
     /work/gf93/f93007/QE/pseudo/H.pbe-kjpaw_psl.1.0.0.UPF
     MD5 check sum: 29603ce6b94be0cf73e39cbb1f958d8e
     Pseudo is Projector augmented-wave, Zval =  1.0
     Generated using "atomic" code by A. Dal Corso  v.6.1 svn rev. 13369
     Shape of augmentation charge: PSQ
     Using radial grid of  929 points,  2 beta functions with: 
                l(1) =   0
                l(2) =   0
     Q(r) pseudized with 0 coefficients 


     vdW kernel table read from file vdW_kernel_table
     MD5 check sum: 6d69797d2e858e93e031fb7d16d30e50

     atomic species   valence    mass     pseudopotential
        O              6.00    15.99900      O( 1.00)
        H              1.00     1.00800      H( 1.00)

     No symmetry found


                                    s                        frac. trans.

      isym =  1     identity                                     

 cryst.   s( 1) = (     1          0          0      )
                  (     0          1          0      )
                  (     0          0          1      )

 cart.    s( 1) = (  1.0000000  0.0000000  0.0000000 )
                  (  0.0000000  1.0000000  0.0000000 )
                  (  0.0000000  0.0000000  1.0000000 )


   Cartesian axes

     site n.     atom                  positions (alat units)
         1           O   tau(   1) = (   0.5000000   0.5000000   0.0001590  )
         2           H   tau(   2) = (   0.4995000   0.5384535   0.0297364  )
         3           H   tau(   3) = (   0.5000000   0.4615465   0.0297364  )

   Crystallographic axes

     site n.     atom                  positions (cryst. coord.)
         1           O   tau(   1) = (  0.5000000  0.5000000  0.0001590  )
         2           H   tau(   2) = (  0.4995000  0.5384535  0.0297364  )
         3           H   tau(   3) = (  0.5000000  0.4615465  0.0297364  )

     number of k points=     1
                       cart. coord. in units 2pi/alat
        k(    1) = (   0.0000000   0.0000000   0.0000000), wk =   2.0000000

                       cryst. coord.
        k(    1) = (   0.0000000   0.0000000   0.0000000), wk =   2.0000000

     Dense  grid: 14236565 G-vectors     FFT dimensions: ( 320, 320, 320)

     Smooth grid:  3601159 G-vectors     FFT dimensions: ( 192, 192, 192)

     Estimated max dynamical RAM per process >     488.77MB

     Estimated total allocated dynamical RAM >   46922.27MB

     Initial potential from superposition of free atoms
     Check: negative starting charge=   -0.001152

     starting charge    7.99998, renormalised to    8.00000

     negative rho (up, down):  1.152E-03 0.000E+00


     %%%%%%%%%%%%%%%%%%%%%%%%%%%%%%%%%%%%%%%%%%%%%%%%%%%%%%%%%%%%%%%%%%%%%%%%
     %                                                                      %
     % You are using vdW-DF, which was implemented by the Thonhauser group. %
     % Please cite the following two papers that made this development      %
     % possible and the two reviews that describe the various versions:     %
     %                                                                      %
     %   T. Thonhauser et al., PRL 115, 136402 (2015).                      %
     %   T. Thonhauser et al., PRB 76, 125112 (2007).                       %
     %   K. Berland et al., Rep. Prog. Phys. 78, 066501 (2015).             %
     %   D.C. Langreth et al., J. Phys.: Condens. Matter 21, 084203 (2009). %
     %                                                                      %
     %                                                                      %
     % If you are calculating the stress with vdW-DF, please also cite:     %
     %                                                                      %
     %   R. Sabatini et al., J. Phys.: Condens. Matter 24, 424209 (2012).   %
     %                                                                      %
     %%%%%%%%%%%%%%%%%%%%%%%%%%%%%%%%%%%%%%%%%%%%%%%%%%%%%%%%%%%%%%%%%%%%%%%%


     Carrying out vdW-DF run using the following parameters:
     Nqs    =  20  Npoints =  1024  r_max =  100.000
     q_mesh =  0.00001000  0.04494208  0.09755937  0.15916263
               0.23128650  0.31572767  0.41458969  0.53033537
               0.66584808  0.82450364  1.01025438  1.22772762
               1.48234092  1.78043706  2.12944203  2.53805004
               3.01644009  3.57652955  4.23227104  5.00000000


     -----------------------------------------------
     Non-local corr. energy    =       0.13358247 Ry
     -----------------------------------------------

     Starting wfc are    6 randomized atomic wfcs +   34 random wfc
     Checking if some PAW data can be deallocated... 
       node    0, deallocated PAW data for type:  2
       node    1, deallocated PAW data for type:  2
       node    2, deallocated PAW data for type:  2
       node    3, deallocated PAW data for type:  2
       node    4, deallocated PAW data for type:  2
       node    5, deallocated PAW data for type:  2
       node    6, deallocated PAW data for type:  2
       node    7, deallocated PAW data for type:  2
       node    8, deallocated PAW data for type:  2
       node    9, deallocated PAW data for type:  2
       node   10, deallocated PAW data for type:  2
       node   11, deallocated PAW data for type:  2
       node   12, deallocated PAW data for type:  2
       node   13, deallocated PAW data for type:  2
       node   14, deallocated PAW data for type:  2
       node   15, deallocated PAW data for type:  2
       node   16, deallocated PAW data for type:  2
       node   17, deallocated PAW data for type:  2
       node   18, deallocated PAW data for type:  2
       node   19, deallocated PAW data for type:  2
       node   20, deallocated PAW data for type:  2
       node   21, deallocated PAW data for type:  2
       node   22, deallocated PAW data for type:  2
       node   23, deallocated PAW data for type:  2
       node   24, deallocated PAW data for type:  2
       node   25, deallocated PAW data for type:  2
       node   26, deallocated PAW data for type:  2
       node   27, deallocated PAW data for type:  2
       node   28, deallocated PAW data for type:  2
       node   29, deallocated PAW data for type:  2
       node   30, deallocated PAW data for type:  2
       node   31, deallocated PAW data for type:  2
       node   32, deallocated PAW data for type:  1
       node   33, deallocated PAW data for type:  1
       node   34, deallocated PAW data for type:  1
       node   35, deallocated PAW data for type:  1
       node   36, deallocated PAW data for type:  1
       node   37, deallocated PAW data for type:  1
       node   38, deallocated PAW data for type:  1
       node   39, deallocated PAW data for type:  1
       node   40, deallocated PAW data for type:  1
       node   41, deallocated PAW data for type:  1
       node   42, deallocated PAW data for type:  1
       node   43, deallocated PAW data for type:  1
       node   44, deallocated PAW data for type:  1
       node   45, deallocated PAW data for type:  1
       node   46, deallocated PAW data for type:  1
       node   47, deallocated PAW data for type:  1
       node   48, deallocated PAW data for type:  1
       node   49, deallocated PAW data for type:  1
       node   50, deallocated PAW data for type:  1
       node   51, deallocated PAW data for type:  1
       node   52, deallocated PAW data for type:  1
       node   53, deallocated PAW data for type:  1
       node   54, deallocated PAW data for type:  1
       node   55, deallocated PAW data for type:  1
       node   56, deallocated PAW data for type:  1
       node   57, deallocated PAW data for type:  1
       node   58, deallocated PAW data for type:  1
       node   59, deallocated PAW data for type:  1
       node   60, deallocated PAW data for type:  1
       node   61, deallocated PAW data for type:  1
       node   62, deallocated PAW data for type:  1
       node   63, deallocated PAW data for type:  1
       node   64, deallocated PAW data for type:  1
       node   65, deallocated PAW data for type:  1
       node   66, deallocated PAW data for type:  1
       node   67, deallocated PAW data for type:  1
       node   68, deallocated PAW data for type:  1
       node   69, deallocated PAW data for type:  1
       node   70, deallocated PAW data for type:  1
       node   71, deallocated PAW data for type:  1
       node   72, deallocated PAW data for type:  1
       node   73, deallocated PAW data for type:  1
       node   74, deallocated PAW data for type:  1
       node   75, deallocated PAW data for type:  1
       node   76, deallocated PAW data for type:  1
       node   77, deallocated PAW data for type:  1
       node   78, deallocated PAW data for type:  1
       node   79, deallocated PAW data for type:  1
       node   80, deallocated PAW data for type:  1
       node   81, deallocated PAW data for type:  1
       node   82, deallocated PAW data for type:  1
       node   83, deallocated PAW data for type:  1
       node   84, deallocated PAW data for type:  1
       node   85, deallocated PAW data for type:  1
       node   86, deallocated PAW data for type:  1
       node   87, deallocated PAW data for type:  1
       node   88, deallocated PAW data for type:  1
       node   89, deallocated PAW data for type:  1
       node   90, deallocated PAW data for type:  1
       node   91, deallocated PAW data for type:  1
       node   92, deallocated PAW data for type:  1
       node   93, deallocated PAW data for type:  1
       node   94, deallocated PAW data for type:  1
       node   95, deallocated PAW data for type:  1

     total cpu time spent up to now is       25.3 secs

     per-process dynamical memory:   213.0 Mb

     Self-consistent Calculation

     iteration #  1     ecut=    62.47 Ry     beta=0.33
     Davidson diagonalization with overlap
     ethr =  1.00E-02,  avg # of iterations = 12.0

     negative rho (up, down):  1.366E-03 0.000E+00


     -----------------------------------------------
     Non-local corr. energy    =       0.13510411 Ry
     -----------------------------------------------


     total cpu time spent up to now is       34.6 secs

     total energy              =     -44.94349070 Ry
     Harris-Foulkes estimate   =     -45.19777910 Ry
     estimated scf accuracy    <       0.53980266 Ry

     iteration #  2     ecut=    62.47 Ry     beta=0.33
     Davidson diagonalization with overlap
     ethr =  6.75E-03,  avg # of iterations =  1.0

     negative rho (up, down):  9.054E-04 0.000E+00


     -----------------------------------------------
     Non-local corr. energy    =       0.13566915 Ry
     -----------------------------------------------


     total cpu time spent up to now is       41.2 secs

     total energy              =     -44.98677677 Ry
     Harris-Foulkes estimate   =     -45.00603402 Ry
     estimated scf accuracy    <       0.04759775 Ry

     iteration #  3     ecut=    62.47 Ry     beta=0.33
     Davidson diagonalization with overlap
     ethr =  5.95E-04,  avg # of iterations =  6.0

     negative rho (up, down):  1.516E-03 0.000E+00


     -----------------------------------------------
     Non-local corr. energy    =       0.13505496 Ry
     -----------------------------------------------


     total cpu time spent up to now is       48.9 secs

     total energy              =     -45.00681097 Ry
     Harris-Foulkes estimate   =     -45.03675398 Ry
     estimated scf accuracy    <       0.04587938 Ry

     iteration #  4     ecut=    62.47 Ry     beta=0.33
     Davidson diagonalization with overlap
     ethr =  5.73E-04,  avg # of iterations =  3.0

     negative rho (up, down):  1.558E-03 0.000E+00


     -----------------------------------------------
     Non-local corr. energy    =       0.13635217 Ry
     -----------------------------------------------


     total cpu time spent up to now is       55.6 secs

     total energy              =     -45.01009420 Ry
     Harris-Foulkes estimate   =     -45.04415058 Ry
     estimated scf accuracy    <       0.06667771 Ry

     iteration #  5     ecut=    62.47 Ry     beta=0.33
     Davidson diagonalization with overlap
     ethr =  5.73E-04,  avg # of iterations =  1.0

     negative rho (up, down):  1.491E-03 0.000E+00


     -----------------------------------------------
     Non-local corr. energy    =       0.13631266 Ry
     -----------------------------------------------


     total cpu time spent up to now is       62.1 secs

     total energy              =     -45.01763258 Ry
     Harris-Foulkes estimate   =     -45.01797144 Ry
     estimated scf accuracy    <       0.00406706 Ry

     iteration #  6     ecut=    62.47 Ry     beta=0.33
     Davidson diagonalization with overlap
     ethr =  5.08E-05,  avg # of iterations = 13.0

     negative rho (up, down):  1.495E-03 0.000E+00


     -----------------------------------------------
     Non-local corr. energy    =       0.13625398 Ry
     -----------------------------------------------


     total cpu time spent up to now is       70.6 secs

     total energy              =     -45.02475837 Ry
     Harris-Foulkes estimate   =     -45.02508745 Ry
     estimated scf accuracy    <       0.00143642 Ry

     iteration #  7     ecut=    62.47 Ry     beta=0.33
     Davidson diagonalization with overlap
     ethr =  1.80E-05,  avg # of iterations =  4.0

     negative rho (up, down):  1.569E-03 0.000E+00


     -----------------------------------------------
     Non-local corr. energy    =       0.13617575 Ry
     -----------------------------------------------


     total cpu time spent up to now is       77.3 secs

     total energy              =     -45.02443417 Ry
     Harris-Foulkes estimate   =     -45.02478749 Ry
     estimated scf accuracy    <       0.00071773 Ry

     iteration #  8     ecut=    62.47 Ry     beta=0.33
     Davidson diagonalization with overlap
     ethr =  8.97E-06,  avg # of iterations =  3.0

     negative rho (up, down):  1.583E-03 0.000E+00


     -----------------------------------------------
     Non-local corr. energy    =       0.13616942 Ry
     -----------------------------------------------


     total cpu time spent up to now is       84.1 secs

     total energy              =     -45.02471340 Ry
     Harris-Foulkes estimate   =     -45.02471046 Ry
     estimated scf accuracy    <       0.00006950 Ry

     iteration #  9     ecut=    62.47 Ry     beta=0.33
     Davidson diagonalization with overlap
     ethr =  8.69E-07,  avg # of iterations = 18.0

     negative rho (up, down):  1.596E-03 0.000E+00


     -----------------------------------------------
     Non-local corr. energy    =       0.13616906 Ry
     -----------------------------------------------


     total cpu time spent up to now is       92.6 secs

     total energy              =     -45.02471218 Ry
     Harris-Foulkes estimate   =     -45.02471413 Ry
     estimated scf accuracy    <       0.00007912 Ry

     iteration # 10     ecut=    62.47 Ry     beta=0.33
     Davidson diagonalization with overlap
     ethr =  8.69E-07,  avg # of iterations =  1.0

     negative rho (up, down):  1.602E-03 0.000E+00


     -----------------------------------------------
     Non-local corr. energy    =       0.13617550 Ry
     -----------------------------------------------


     total cpu time spent up to now is       99.1 secs

     total energy              =     -45.02469656 Ry
     Harris-Foulkes estimate   =     -45.02471220 Ry
     estimated scf accuracy    <       0.00007546 Ry

     iteration # 11     ecut=    62.47 Ry     beta=0.33
     Davidson diagonalization with overlap
     ethr =  8.69E-07,  avg # of iterations =  1.0

     negative rho (up, down):  1.602E-03 0.000E+00


     -----------------------------------------------
     Non-local corr. energy    =       0.13617544 Ry
     -----------------------------------------------


     total cpu time spent up to now is      105.6 secs

     total energy              =     -45.02469820 Ry
     Harris-Foulkes estimate   =     -45.02469780 Ry
     estimated scf accuracy    <       0.00003942 Ry

     iteration # 12     ecut=    62.47 Ry     beta=0.33
     Davidson diagonalization with overlap
     ethr =  4.93E-07,  avg # of iterations =  1.0

     negative rho (up, down):  1.603E-03 0.000E+00


     -----------------------------------------------
     Non-local corr. energy    =       0.13617520 Ry
     -----------------------------------------------


     total cpu time spent up to now is      112.2 secs

     total energy              =     -45.02469876 Ry
     Harris-Foulkes estimate   =     -45.02469844 Ry
     estimated scf accuracy    <       0.00003966 Ry

     iteration # 13     ecut=    62.47 Ry     beta=0.33
     Davidson diagonalization with overlap
     ethr =  4.93E-07,  avg # of iterations =  1.0

     negative rho (up, down):  1.602E-03 0.000E+00


     -----------------------------------------------
     Non-local corr. energy    =       0.13617566 Ry
     -----------------------------------------------


     total cpu time spent up to now is      118.7 secs

     total energy              =     -45.02469811 Ry
     Harris-Foulkes estimate   =     -45.02469901 Ry
     estimated scf accuracy    <       0.00003624 Ry

     iteration # 14     ecut=    62.47 Ry     beta=0.33
     Davidson diagonalization with overlap
     ethr =  4.53E-07,  avg # of iterations =  1.0

     negative rho (up, down):  1.603E-03 0.000E+00


     -----------------------------------------------
     Non-local corr. energy    =       0.13617616 Ry
     -----------------------------------------------


     total cpu time spent up to now is      125.3 secs

     total energy              =     -45.02469746 Ry
     Harris-Foulkes estimate   =     -45.02469834 Ry
     estimated scf accuracy    <       0.00003278 Ry

     iteration # 15     ecut=    62.47 Ry     beta=0.33
     Davidson diagonalization with overlap
     ethr =  4.10E-07,  avg # of iterations =  1.0

     negative rho (up, down):  1.602E-03 0.000E+00


     -----------------------------------------------
     Non-local corr. energy    =       0.13617614 Ry
     -----------------------------------------------


     total cpu time spent up to now is      131.8 secs

     total energy              =     -45.02469760 Ry
     Harris-Foulkes estimate   =     -45.02469759 Ry
     estimated scf accuracy    <       0.00002889 Ry

     iteration # 16     ecut=    62.47 Ry     beta=0.33
     Davidson diagonalization with overlap
     ethr =  3.61E-07,  avg # of iterations =  1.0

     negative rho (up, down):  1.602E-03 0.000E+00


     -----------------------------------------------
     Non-local corr. energy    =       0.13617620 Ry
     -----------------------------------------------


     total cpu time spent up to now is      138.4 secs

     total energy              =     -45.02469830 Ry
     Harris-Foulkes estimate   =     -45.02469770 Ry
     estimated scf accuracy    <       0.00002847 Ry

     iteration # 17     ecut=    62.47 Ry     beta=0.33
     Davidson diagonalization with overlap
     ethr =  3.56E-07,  avg # of iterations =  1.0

     negative rho (up, down):  1.602E-03 0.000E+00


     -----------------------------------------------
     Non-local corr. energy    =       0.13617602 Ry
     -----------------------------------------------


     total cpu time spent up to now is      145.0 secs

     total energy              =     -45.02469787 Ry
     Harris-Foulkes estimate   =     -45.02469837 Ry
     estimated scf accuracy    <       0.00002867 Ry

     iteration # 18     ecut=    62.47 Ry     beta=0.33
     Davidson diagonalization with overlap
     ethr =  3.56E-07,  avg # of iterations =  1.0

     negative rho (up, down):  1.596E-03 0.000E+00


     -----------------------------------------------
     Non-local corr. energy    =       0.13617436 Ry
     -----------------------------------------------


     total cpu time spent up to now is      151.6 secs

     total energy              =     -45.02469925 Ry
     Harris-Foulkes estimate   =     -45.02469802 Ry
     estimated scf accuracy    <       0.00002562 Ry

     iteration # 19     ecut=    62.47 Ry     beta=0.33
     Davidson diagonalization with overlap
     ethr =  3.20E-07,  avg # of iterations =  1.0

     negative rho (up, down):  1.585E-03 0.000E+00


     -----------------------------------------------
     Non-local corr. energy    =       0.13617465 Ry
     -----------------------------------------------


     total cpu time spent up to now is      158.2 secs

     total energy              =     -45.02469301 Ry
     Harris-Foulkes estimate   =     -45.02469929 Ry
     estimated scf accuracy    <       0.00002684 Ry

     iteration # 20     ecut=    62.47 Ry     beta=0.33
     Davidson diagonalization with overlap
     ethr =  3.20E-07,  avg # of iterations =  1.0

     negative rho (up, down):  1.577E-03 0.000E+00


     -----------------------------------------------
     Non-local corr. energy    =       0.13617554 Ry
     -----------------------------------------------


     total cpu time spent up to now is      164.8 secs

     total energy              =     -45.02469126 Ry
     Harris-Foulkes estimate   =     -45.02469409 Ry
     estimated scf accuracy    <       0.00000953 Ry

     iteration # 21     ecut=    62.47 Ry     beta=0.33
     Davidson diagonalization with overlap
     ethr =  1.19E-07,  avg # of iterations =  3.0

     negative rho (up, down):  1.577E-03 0.000E+00


     -----------------------------------------------
     Non-local corr. energy    =       0.13617686 Ry
     -----------------------------------------------


     total cpu time spent up to now is      171.5 secs

     total energy              =     -45.02469373 Ry
     Harris-Foulkes estimate   =     -45.02469374 Ry
     estimated scf accuracy    <       0.00000018 Ry

     iteration # 22     ecut=    62.47 Ry     beta=0.33
     Davidson diagonalization with overlap
     ethr =  2.26E-09,  avg # of iterations =  4.0

     negative rho (up, down):  1.577E-03 0.000E+00


     -----------------------------------------------
     Non-local corr. energy    =       0.13617693 Ry
     -----------------------------------------------


     total cpu time spent up to now is      178.3 secs

     total energy              =     -45.02469386 Ry
     Harris-Foulkes estimate   =     -45.02469381 Ry
     estimated scf accuracy    <       0.00000014 Ry

     iteration # 23     ecut=    62.47 Ry     beta=0.33
     Davidson diagonalization with overlap
     ethr =  1.75E-09,  avg # of iterations =  3.0

     negative rho (up, down):  1.574E-03 0.000E+00


     -----------------------------------------------
     Non-local corr. energy    =       0.13617831 Ry
     -----------------------------------------------


     total cpu time spent up to now is      185.0 secs

     total energy              =     -45.02469421 Ry
     Harris-Foulkes estimate   =     -45.02469388 Ry
     estimated scf accuracy    <       0.00000023 Ry

     iteration # 24     ecut=    62.47 Ry     beta=0.33
     Davidson diagonalization with overlap
     ethr =  1.75E-09,  avg # of iterations =  3.0

     negative rho (up, down):  1.572E-03 0.000E+00


     -----------------------------------------------
     Non-local corr. energy    =       0.13617890 Ry
     -----------------------------------------------


     total cpu time spent up to now is      191.8 secs

     total energy              =     -45.02469411 Ry
     Harris-Foulkes estimate   =     -45.02469436 Ry
     estimated scf accuracy    <       0.00000148 Ry

     iteration # 25     ecut=    62.47 Ry     beta=0.33
     Davidson diagonalization with overlap
     ethr =  1.75E-09,  avg # of iterations =  1.0

     negative rho (up, down):  1.580E-03 0.000E+00


     -----------------------------------------------
     Non-local corr. energy    =       0.13617871 Ry
     -----------------------------------------------


     total cpu time spent up to now is      198.3 secs

     total energy              =     -45.02469322 Ry
     Harris-Foulkes estimate   =     -45.02469412 Ry
     estimated scf accuracy    <       0.00000097 Ry

     iteration # 26     ecut=    62.47 Ry     beta=0.33
     Davidson diagonalization with overlap
     ethr =  1.75E-09,  avg # of iterations =  3.0

     negative rho (up, down):  1.581E-03 0.000E+00


     -----------------------------------------------
     Non-local corr. energy    =       0.13618092 Ry
     -----------------------------------------------


     total cpu time spent up to now is      205.2 secs

     total energy              =     -45.02469349 Ry
     Harris-Foulkes estimate   =     -45.02469350 Ry
     estimated scf accuracy    <       0.00000008 Ry

     iteration # 27     ecut=    62.47 Ry     beta=0.33
     Davidson diagonalization with overlap
     ethr =  1.06E-09,  avg # of iterations =  3.0

     negative rho (up, down):  1.579E-03 0.000E+00


     -----------------------------------------------
     Non-local corr. energy    =       0.13618012 Ry
     -----------------------------------------------


     total cpu time spent up to now is      211.9 secs

     total energy              =     -45.02469346 Ry
     Harris-Foulkes estimate   =     -45.02469368 Ry
     estimated scf accuracy    <       0.00000151 Ry

     iteration # 28     ecut=    62.47 Ry     beta=0.33
     Davidson diagonalization with overlap
     ethr =  1.06E-09,  avg # of iterations =  3.0

     negative rho (up, down):  1.573E-03 0.000E+00


     -----------------------------------------------
     Non-local corr. energy    =       0.13618012 Ry
     -----------------------------------------------


     total cpu time spent up to now is      218.8 secs

     total energy              =     -45.02469372 Ry
     Harris-Foulkes estimate   =     -45.02469357 Ry
     estimated scf accuracy    <       0.00000019 Ry

     iteration # 29     ecut=    62.47 Ry     beta=0.33
     Davidson diagonalization with overlap
     ethr =  1.06E-09,  avg # of iterations =  1.0

     negative rho (up, down):  1.572E-03 0.000E+00


     -----------------------------------------------
     Non-local corr. energy    =       0.13617980 Ry
     -----------------------------------------------


     total cpu time spent up to now is      225.4 secs

     total energy              =     -45.02469374 Ry
     Harris-Foulkes estimate   =     -45.02469373 Ry
     estimated scf accuracy    <       0.00000009 Ry

     iteration # 30     ecut=    62.47 Ry     beta=0.33
     Davidson diagonalization with overlap
     ethr =  1.06E-09,  avg # of iterations =  3.0

     negative rho (up, down):  1.571E-03 0.000E+00


     -----------------------------------------------
     Non-local corr. energy    =       0.13618030 Ry
     -----------------------------------------------


     total cpu time spent up to now is      232.1 secs

     total energy              =     -45.02469381 Ry
     Harris-Foulkes estimate   =     -45.02469376 Ry
     estimated scf accuracy    <       0.00000001 Ry

     iteration # 31     ecut=    62.47 Ry     beta=0.33
     Davidson diagonalization with overlap
     ethr =  1.41E-10,  avg # of iterations =  4.0

     negative rho (up, down):  1.570E-03 0.000E+00


     -----------------------------------------------
     Non-local corr. energy    =       0.13618029 Ry
     -----------------------------------------------


     total cpu time spent up to now is      239.0 secs

     total energy              =     -45.02469382 Ry
     Harris-Foulkes estimate   =     -45.02469381 Ry
     estimated scf accuracy    <       0.00000001 Ry

     iteration # 32     ecut=    62.47 Ry     beta=0.33
     Davidson diagonalization with overlap
     ethr =  1.41E-10,  avg # of iterations =  1.0

     negative rho (up, down):  1.570E-03 0.000E+00


     -----------------------------------------------
     Non-local corr. energy    =       0.13618022 Ry
     -----------------------------------------------


     total cpu time spent up to now is      245.6 secs

     total energy              =     -45.02469383 Ry
     Harris-Foulkes estimate   =     -45.02469382 Ry
     estimated scf accuracy    <       0.00000001 Ry

     iteration # 33     ecut=    62.47 Ry     beta=0.33
     Davidson diagonalization with overlap
     ethr =  1.41E-10,  avg # of iterations =  1.0

     negative rho (up, down):  1.570E-03 0.000E+00


     -----------------------------------------------
     Non-local corr. energy    =       0.13618012 Ry
     -----------------------------------------------


     total cpu time spent up to now is      252.1 secs

     total energy              =     -45.02469383 Ry
     Harris-Foulkes estimate   =     -45.02469383 Ry
     estimated scf accuracy    <       0.00000001 Ry

     iteration # 34     ecut=    62.47 Ry     beta=0.33
     Davidson diagonalization with overlap
     ethr =  1.40E-10,  avg # of iterations =  1.0

     negative rho (up, down):  1.569E-03 0.000E+00


     -----------------------------------------------
     Non-local corr. energy    =       0.13617947 Ry
     -----------------------------------------------


     total cpu time spent up to now is      258.7 secs

     total energy              =     -45.02469393 Ry
     Harris-Foulkes estimate   =     -45.02469383 Ry
     estimated scf accuracy    <       0.00000001 Ry

     iteration # 35     ecut=    62.47 Ry     beta=0.33
     Davidson diagonalization with overlap
     ethr =  1.27E-10,  avg # of iterations =  3.0

     negative rho (up, down):  1.572E-03 0.000E+00


     -----------------------------------------------
     Non-local corr. energy    =       0.13617910 Ry
     -----------------------------------------------


     total cpu time spent up to now is      265.5 secs

     total energy              =     -45.02469380 Ry
     Harris-Foulkes estimate   =     -45.02469394 Ry
     estimated scf accuracy    <       0.00000008 Ry

     iteration # 36     ecut=    62.47 Ry     beta=0.33
     Davidson diagonalization with overlap
     ethr =  1.27E-10,  avg # of iterations =  3.0

     negative rho (up, down):  1.572E-03 0.000E+00


     -----------------------------------------------
     Non-local corr. energy    =       0.13617893 Ry
     -----------------------------------------------


     total cpu time spent up to now is      272.4 secs

     total energy              =     -45.02469384 Ry
     Harris-Foulkes estimate   =     -45.02469383 Ry
     estimated scf accuracy    <          6.0E-09 Ry

     iteration # 37     ecut=    62.47 Ry     beta=0.33
     Davidson diagonalization with overlap
     ethr =  7.48E-11,  avg # of iterations =  1.0

     negative rho (up, down):  1.571E-03 0.000E+00


     -----------------------------------------------
     Non-local corr. energy    =       0.13617875 Ry
     -----------------------------------------------


     total cpu time spent up to now is      278.9 secs

     total energy              =     -45.02469388 Ry
     Harris-Foulkes estimate   =     -45.02469384 Ry
     estimated scf accuracy    <          1.4E-09 Ry

     iteration # 38     ecut=    62.47 Ry     beta=0.33
     Davidson diagonalization with overlap
     ethr =  1.73E-11,  avg # of iterations =  4.0

     negative rho (up, down):  1.572E-03 0.000E+00


     -----------------------------------------------
     Non-local corr. energy    =       0.13617881 Ry
     -----------------------------------------------


     total cpu time spent up to now is      285.8 secs

     total energy              =     -45.02469387 Ry
     Harris-Foulkes estimate   =     -45.02469389 Ry
     estimated scf accuracy    <       0.00000002 Ry

     iteration # 39     ecut=    62.47 Ry     beta=0.33
     Davidson diagonalization with overlap
     ethr =  1.73E-11,  avg # of iterations =  3.0

     negative rho (up, down):  1.572E-03 0.000E+00


     -----------------------------------------------
     Non-local corr. energy    =       0.13617880 Ry
     -----------------------------------------------


     total cpu time spent up to now is      292.6 secs

     total energy              =     -45.02469387 Ry
     Harris-Foulkes estimate   =     -45.02469387 Ry
     estimated scf accuracy    <          6.3E-11 Ry

     iteration # 40     ecut=    62.47 Ry     beta=0.33
     Davidson diagonalization with overlap
     ethr =  7.86E-13,  avg # of iterations =  3.0

     negative rho (up, down):  1.572E-03 0.000E+00


     -----------------------------------------------
     Non-local corr. energy    =       0.13617882 Ry
     -----------------------------------------------


     total cpu time spent up to now is      299.4 secs

     total energy              =     -45.02469387 Ry
     Harris-Foulkes estimate   =     -45.02469387 Ry
     estimated scf accuracy    <          4.4E-11 Ry

     iteration # 41     ecut=    62.47 Ry     beta=0.33
     Davidson diagonalization with overlap
     ethr =  5.53E-13,  avg # of iterations =  3.0

     negative rho (up, down):  1.572E-03 0.000E+00


     -----------------------------------------------
     Non-local corr. energy    =       0.13617882 Ry
     -----------------------------------------------


     total cpu time spent up to now is      306.1 secs

     total energy              =     -45.02469387 Ry
     Harris-Foulkes estimate   =     -45.02469387 Ry
     estimated scf accuracy    <          4.8E-11 Ry

     iteration # 42     ecut=    62.47 Ry     beta=0.33
     Davidson diagonalization with overlap
     ethr =  5.53E-13,  avg # of iterations =  2.0

     negative rho (up, down):  1.572E-03 0.000E+00


     -----------------------------------------------
     Non-local corr. energy    =       0.13617883 Ry
     -----------------------------------------------


     total cpu time spent up to now is      312.7 secs

     End of self-consistent calculation

          k = 0.0000 0.0000 0.0000 (450127 PWs)   bands (ev):

   -25.6219 -13.5474  -9.6928  -7.6567  -1.4710  -0.1534  -0.0055   0.1333
     0.1428   0.1858   0.2113   0.3025   0.3139   0.4477   0.4675   0.5454
     0.5465   0.5494   0.5598   0.5767   0.5871   0.5880   0.5883   0.7560
     0.7780   0.8642   0.8802   0.9201   0.9280   0.9421   0.9551   1.0767
     1.1136   1.2059   1.2247   1.2632   1.2926   1.3846   1.4173   1.4770

     occupation numbers 
     1.0000   1.0000   1.0000   1.0000   0.0000   0.0000   0.0000   0.0000
     0.0000   0.0000   0.0000   0.0000   0.0000   0.0000   0.0000   0.0000
     0.0000   0.0000   0.0000   0.0000   0.0000   0.0000   0.0000   0.0000
     0.0000   0.0000   0.0000   0.0000   0.0000   0.0000   0.0000   0.0000
     0.0000   0.0000   0.0000   0.0000   0.0000   0.0000   0.0000   0.0000

     highest occupied, lowest unoccupied level (ev):    -7.6567   -1.4710

!    total energy              =     -45.02469387 Ry
     Harris-Foulkes estimate   =     -45.02469387 Ry
     estimated scf accuracy    <          3.8E-12 Ry

     total all-electron energy =      -153.871576 Ry

     The total energy is the sum of the following terms:

     one-electron contribution =     -68.85933025 Ry
     hartree contribution      =      36.11609287 Ry
     xc contribution           =      -9.22869353 Ry
     ewald contribution        =       7.17303113 Ry
     one-center paw contrib.   =     -10.22579408 Ry
      -> PAW hartree energy AE =      27.89634698 Ry
      -> PAW hartree energy PS =     -27.86166246 Ry
      -> PAW xc energy AE      =     -17.90381223 Ry
      -> PAW xc energy PS      =       7.64457877 Ry
      -> total E_H with PAW    =      36.15077739 Ry
      -> total E_XC with PAW   =     -19.48792699 Ry

     convergence has been achieved in  42 iterations

     negative rho (up, down):  1.572E-03 0.000E+00


     -----------------------------------------------
     Non-local corr. energy    =       0.13617883 Ry
     -----------------------------------------------


     Forces acting on atoms (cartesian axes, Ry/au):

     atom    1 type  1   force =     0.00000087    0.00007657    0.00004111
     atom    2 type  2   force =    -0.00000005   -0.00006532   -0.00004840
     atom    3 type  2   force =    -0.00000082   -0.00001125    0.00001065
     The non-local contrib.  to forces
     atom    1 type  1   force =    -0.02125369   -0.00012268    2.51673661
     atom    2 type  2   force =     0.00115350   -0.09241871   -0.06537435
     atom    3 type  2   force =    -0.00004818    0.09244017   -0.06539097
     The ionic contribution  to forces
     atom    1 type  1   force =     0.03676477    0.00045076   -4.35669047
     atom    2 type  2   force =    -0.03830061    3.06367156    2.17817188
     atom    3 type  2   force =     0.00153584   -3.06412232    2.17851859
     The local contribution  to forces
     atom    1 type  1   force =    -0.01571466   -0.00025172    1.86420010
     atom    2 type  2   force =     0.03714692   -2.97131857   -2.11284643
     atom    3 type  2   force =    -0.00148862    2.97167119   -2.11311745
     The core correction contribution to forces
     atom    1 type  1   force =     0.00020443    0.00000089   -0.02420794
     atom    2 type  2   force =     0.00000000    0.00000000    0.00000000
     atom    3 type  2   force =     0.00000000    0.00000000    0.00000000
     The Hubbard contrib.    to forces
     atom    1 type  1   force =     0.00000000    0.00000000    0.00000000
     atom    2 type  2   force =     0.00000000    0.00000000    0.00000000
     atom    3 type  2   force =     0.00000000    0.00000000    0.00000000
     The SCF correction term to forces
     atom    1 type  1   force =    -0.00000013   -0.00000079    0.00000281
     atom    2 type  2   force =     0.00000000    0.00000031    0.00000050
     atom    3 type  2   force =     0.00000000   -0.00000039    0.00000047

     Total force =     0.000120     Total SCF correction =     0.000003

     Writing output data file H2O_IR.save
 
     init_run     :     44.87s CPU     23.66s WALL (       1 calls)
     electrons    :    560.03s CPU    288.05s WALL (       1 calls)
     forces       :     14.65s CPU      7.58s WALL (       1 calls)

     Called by init_run:
     wfcinit      :      0.39s CPU      0.39s WALL (       1 calls)
     wfcinit:atom :      0.00s CPU      0.00s WALL (       1 calls)
     wfcinit:wfcr :      0.35s CPU      0.36s WALL (       1 calls)
     potinit      :     13.97s CPU      7.01s WALL (       1 calls)

     Called by electrons:
     c_bands      :     84.57s CPU     43.32s WALL (      42 calls)
     sum_band     :     23.78s CPU     14.01s WALL (      42 calls)
     v_of_rho     :    432.74s CPU    221.89s WALL (      43 calls)
     v_h          :      8.82s CPU      2.85s WALL (      43 calls)
     v_xc         :    432.93s CPU    224.06s WALL (      44 calls)
     newd         :      7.71s CPU      6.24s WALL (      43 calls)
     PAW_pot      :      3.61s CPU      1.58s WALL (      43 calls)
     mix_rho      :     10.36s CPU      4.22s WALL (      42 calls)

     Called by c_bands:
     init_us_2    :      0.08s CPU      0.07s WALL (      85 calls)
     cegterg      :     84.45s CPU     43.20s WALL (      42 calls)

     Called by sum_band:
     sum_band:bec :      0.00s CPU      0.00s WALL (      42 calls)
     addusdens    :      5.31s CPU      3.47s WALL (      42 calls)

     Called by *egterg:
     h_psi        :     57.49s CPU     29.07s WALL (     171 calls)
     s_psi        :      0.04s CPU      0.04s WALL (     171 calls)
     g_psi        :      0.02s CPU      0.02s WALL (     128 calls)
     cdiaghg      :     12.41s CPU      5.55s WALL (     170 calls)
     cegterg:over :      1.69s CPU      1.69s WALL (     128 calls)
     cegterg:upda :      1.61s CPU      0.60s WALL (     128 calls)
     cegterg:last :      0.24s CPU      0.24s WALL (      46 calls)
     cdiaghg:chol :      0.16s CPU      0.16s WALL (     170 calls)
     cdiaghg:inve :      0.11s CPU      0.11s WALL (     170 calls)
     cdiaghg:para :      0.12s CPU      0.12s WALL (     340 calls)

     Called by h_psi:
     h_psi:pot    :     57.44s CPU     29.02s WALL (     171 calls)
     h_psi:calbec :      0.67s CPU      0.12s WALL (     171 calls)
     vloc_psi     :     56.72s CPU     28.85s WALL (     171 calls)
     add_vuspsi   :      0.04s CPU      0.04s WALL (     171 calls)

     General routines
     calbec       :      0.72s CPU      0.17s WALL (     217 calls)
     fft          :    237.10s CPU    117.29s WALL (    2895 calls)
     ffts         :      2.62s CPU      0.60s WALL (      85 calls)
     fftw         :     61.55s CPU     31.26s WALL (    9672 calls)
     interpolate  :     12.16s CPU      4.03s WALL (      85 calls)
 
     Parallel routines
     fft_scatter  :    188.59s CPU     94.43s WALL (   12652 calls)

     PAW routines
     PAW_pot      :      3.61s CPU      1.58s WALL (      43 calls)
 
     PWSCF        : 10m26.23s CPU     5m24.19s WALL

 
   This run was terminated on:  14: 5:46   9Feb2026            

=------------------------------------------------------------------------------=
   JOB DONE.
=------------------------------------------------------------------------------=
