
     Program PWSCF v.6.1 starts on 11Feb2026 at  2:37:45 

     This program is part of the open-source Quantum ESPRESSO suite
     for quantum simulation of materials; please cite
         "P. Giannozzi et al., J. Phys.:Condens. Matter 21 395502 (2009);
          URL http://www.quantum-espresso.org", 
     in publications or presentations arising from this work. More details at
     http://www.quantum-espresso.org/quote

     Parallel version (MPI & OpenMP), running on     480 processor cores
     Number of MPI processes:               240
     Threads/MPI process:                     2
     R & G space division:  proc/nbgrp/npool/nimage =     240
     Reading input from espresso.pwi

     Current dimensions of program PWSCF are:
     Max number of different atomic species (ntypx) = 10
     Max number of k-points (npk) =  40000
     Max angular momentum in pseudopotentials (lmaxx) =  3

     IMPORTANT: XC functional enforced from input :
     Exchange-correlation      = VDW-DF2 ( 1  4 13  0 2 0)
     Any further DFT definition will be discarded
     Please, verify this is what you really want

               file Cu.pbe-dn-kjpaw_psl.1.0.0.UPF: wavefunction(s)  4S 3D renormalized
               file C.pbe-n-kjpaw_psl.1.0.0.UPF: wavefunction(s)  2S 2P renormalized
               file O.pbe-n-kjpaw_psl.1.0.0.UPF: wavefunction(s)  2S 2P renormalized
     Message from routine iosys_1drism:
     default density from MOL file(H2O.tip5p.MOL) is used

     Subspace diagonalization in iterative solution of the eigenvalue problem:
     one sub-group per band group will be used
     ELPA distributed-memory algorithm (size of sub-group: 10* 10 procs)


     Molecule # 1 for H2O read from file:
     /work/gf93/f93007/QE/pseudo/H2O.tip5p.MOL
     Density:
         0.72794769E+02 cell^-1
         0.49533750E-02 bohr^-3
         0.55506881E+02 mol/L
         0.99997200E+00 g/cm^3
     Permittivity:
        78.355300
     Number of atoms:   5
     Atoms:
       #  atom      X (angs)      Y (angs)      Z (angs)      Q (e)         E (kcal/mol)  S (angs)
       1  O/h2o     0.00000000    0.00000000    0.00000000    0.00000000    0.16000000    3.12000000
       2  H/h2o     0.75695000    0.58588000    0.00000000    0.24100000    0.04600000    1.00000000
       3  H/h2o    -0.75695000    0.58588000    0.00000000    0.24100000    0.04600000    1.00000000
       4  L/h2o     0.00000000   -0.40415000    0.57154000   -0.24100000    0.04600000    1.80000000
       5  L/h2o     0.00000000   -0.40415000   -0.57154000   -0.24100000    0.04600000    1.80000000


     Molecule # 2 for K+ read from file:
     /work/gf93/f93007/QE/pseudo/K+.oplsaa.MOL
     Density:
         0.13114549E+01 cell^-1
         0.89238936E-04 bohr^-3
         0.10000000E+01 mol/L
         0.39098300E-01 g/cm^3
     Number of atoms:   1
     Atoms:
       #  atom      X (angs)      Y (angs)      Z (angs)      Q (e)         E (kcal/mol)  S (angs)
       1  K         0.00000000    0.00000000    0.00000000    1.00000000    0.00032800    4.93462800


     Molecule # 3 for OH- read from file:
     /work/gf93/f93007/QE/pseudo/OH-.oplsaa.MOL
     Density:
         0.13114549E+01 cell^-1
         0.89238936E-04 bohr^-3
         0.10000000E+01 mol/L
         0.17007340E-01 g/cm^3
     Number of atoms:   2
     Atoms:
       #  atom      X (angs)      Y (angs)      Z (angs)      Q (e)         E (kcal/mol)  S (angs)
       1  O/oh      0.00000000    0.00000000    0.00000000   -1.30000000    0.25000000    3.20000000
       2  H/oh      0.95300000    0.00000000    0.00000000    0.30000000    0.04600000    1.00000000


     Number of total sites:   8
     Index site -> solvent: 
       1  1  1  1  1  2  3  3
     Index site -> atom (in a solvent): 
       1  2  3  4  5  1  1  2


     Number of unique sites:   6
     Multiplicity of unique site: 
       1  2  2  1  1  1
     Index unique site -> site: 
       1:  1
       2:  2  3
       3:  4  5
       4:  6
       5:  7
       6:  8


     1D-RISM info
     ------------
     closure equation        =           KH
     temperature             =     300.0000  kelvin
     coulomb smearing radius =       2.0000  bohr
     number of solvent sites =            8
     nv * (nv + 1) / 2       =           36
     number of grids         =         8345
     maximum of R-space      =     999.8802  bohr
     maximum of G-space      =      26.2150  bohr^-1
     #R-grids in local       =           66
     #G-grids in local       =           66
     number of iterations    =       100000
     convergence threshold   =      1.0E-08
     Gaussian width of bonds =       0.2530  bohr
     size of MDIIS           =           20
     step of MDIIS           =       0.1000
     number of processes     =          128


     Radial FFT:
     number of radial grids   =         8345
     number of FFT grids      =        16689
     good number of FFT grids =           -1
     R-space grids:
       0.00000000E+00  0.11983223E+00  0.23966447E+00  0.35949670E+00  0.47932894E+00
       0.59916117E+00  0.71899341E+00  0.83882564E+00  0.95865788E+00  0.10784901E+01
       ..............  ..............  ..............  ..............  ..............
       0.99880168E+03  0.99892151E+03  0.99904134E+03  0.99916117E+03  0.99928101E+03
       0.99940084E+03  0.99952067E+03  0.99964050E+03  0.99976034E+03  0.99988017E+03
     G-space grids:
       0.00000000E+00  0.31417809E-02  0.62835618E-02  0.94253427E-02  0.12567124E-01
       0.15708904E-01  0.18850685E-01  0.21992466E-01  0.25134247E-01  0.28276028E-01
       ..............  ..............  ..............  ..............  ..............
       0.26186744E+02  0.26189886E+02  0.26193027E+02  0.26196169E+02  0.26199311E+02
       0.26202453E+02  0.26205594E+02  0.26208736E+02  0.26211878E+02  0.26215020E+02


     MPI for site:
     number of site groups     =          128
     #procs in a site group    =            1
     this proc in a site group =            0
     the root in a site group  =            0
     this site group           =            0
     inter-site group comm.    =           20
     intra-site group comm.    =            2
     total number of sites     =           36
     starting index of sites   =            1
     ending index of sites     =            1


     MPI for task:
     #procs in a task group    =          128
     this proc in a task group =            0
     the root in a task group  =            0
     task group comm.          =           20
     total number of vectors   =         8345
     starting index of vectors =            1
     ending index of vectors   =           66
     lengths of vectors        = 
        66   66   66   66   66   66   66   66   66   66
        66   66   66   66   66   66   66   66   66   66
        66   66   66   66   66   65   65   65   65   65
        65   65   65   65   65   65   65   65   65   65
        65   65   65   65   65   65   65   65   65   65
        65   65   65   65   65   65   65   65   65   65
        65   65   65   65   65   65   65   65   65   65
        65   65   65   65   65   65   65   65   65   65
        65   65   65   65   65   65   65   65   65   65
        65   65   65   65   65   65   65   65   65   65
        65   65   65   65   65   65   65   65   65   65
        65   65   65   65   65   65   65   65   65   65
        65   65   65   65   65   65   65   65
     displacement of vectors   = 
         0   66  132  198  264  330  396  462  528  594
       660  726  792  858  924  990 1056 1122 1188 1254
      1320 1386 1452 1518 1584 1650 1715 1780 1845 1910
      1975 2040 2105 2170 2235 2300 2365 2430 2495 2560
      2625 2690 2755 2820 2885 2950 3015 3080 3145 3210
      3275 3340 3405 3470 3535 3600 3665 3730 3795 3860
      3925 3990 4055 4120 4185 4250 4315 4380 4445 4510
      4575 4640 4705 4770 4835 4900 4965 5030 5095 5160
      5225 5290 5355 5420 5485 5550 5615 5680 5745 5810
      5875 5940 6005 6070 6135 6200 6265 6330 6395 6460
      6525 6590 6655 6720 6785 6850 6915 6980 7045 7110
      7175 7240 7305 7370 7435 7500 7565 7630 7695 7760
      7825 7890 7955 8020 8085 8150 8215 8280


     Correlation function is read from file


     1D-RISM Calculation

     iter. #     1  RMS(g-h-1)= 9.995E-09  nbox=  0  T=  300.00K

     End of 1D-RISM calculation


     convergence has been achieved in     1 iterations


     Chemical potential of solvation

     H2O        H2O        Closure      0.106068E+01 kcal/mol
                           GaussFluct  -0.737993E+01 kcal/mol

                K+         Closure     -0.288345E+00 kcal/mol
                           GaussFluct  -0.358438E+00 kcal/mol

                OH-        Closure     -0.764259E+00 kcal/mol
                           GaussFluct  -0.855991E+00 kcal/mol

                Total      Closure      0.808077E-02 kcal/mol
                           GaussFluct  -0.859435E+01 kcal/mol

     K+         H2O        Closure     -0.160051E+02 kcal/mol
                           GaussFluct  -0.198958E+02 kcal/mol

                K+         Closure      0.351561E+06 kcal/mol
                           GaussFluct   0.351561E+06 kcal/mol

                OH-        Closure     -0.351612E+06 kcal/mol
                           GaussFluct  -0.351612E+06 kcal/mol

                Total      Closure     -0.668098E+02 kcal/mol
                           GaussFluct  -0.707592E+02 kcal/mol

     OH-        H2O        Closure     -0.424217E+02 kcal/mol
                           GaussFluct  -0.475134E+02 kcal/mol

                K+         Closure     -0.351612E+06 kcal/mol
                           GaussFluct  -0.351612E+06 kcal/mol

                OH-        Closure      0.351561E+06 kcal/mol
                           GaussFluct   0.351561E+06 kcal/mol

                Total      Closure     -0.934347E+02 kcal/mol
                           GaussFluct  -0.986502E+02 kcal/mol

 
     Parallelization info
     --------------------
     sticks:   dense  smooth     PW     G-vecs:    dense   smooth      PW
     Min          40      16      4                16136     4064     568
     Max          41      17      5                16171     4100     615
     Sum        9661    3865   1057              3875677   980529  140539
 

     Title: 
     Cu-vib                                                                     


     bravais-lattice index     =            0
     lattice parameter (alat)  =      14.9832  a.u.
     unit-cell volume          =   14695.9939 (a.u.)^3
     number of atoms/cell      =           38
     number of atomic types    =            3
     number of electrons       =       406.00
     number of Kohn-Sham states=          244
     kinetic-energy cutoff     =      62.4738  Ry
     charge density cutoff     =     624.7385  Ry
     convergence threshold     =      7.3E-12
     mixing beta               =       0.3333
     number of iterations used =           12  plain     mixing
     Exchange-correlation      = VDW-DF2 ( 1  4 13  0 2 0)

     Effective Screening Medium Method
     =================================
     Boundary Conditions: Vacuum-Slab-Vacuum
     total charge in unit cell        =   0.0000
     grid points for fit at edges     =        4 
 

     celldm(1)=  14.983209  celldm(2)=   0.000000  celldm(3)=   0.000000
     celldm(4)=   0.000000  celldm(5)=   0.000000  celldm(6)=   0.000000

     crystal axes: (cart. coord. in units of alat)
               a(1) = (   1.000000   0.000000   0.000000 )  
               a(2) = (   0.500000   0.866025   0.000000 )  
               a(3) = (   0.000000   0.000000   5.044917 )  

     reciprocal axes: (cart. coord. in units 2 pi/alat)
               b(1) = (  1.000000 -0.577351  0.000000 )  
               b(2) = (  0.000000  1.154701  0.000000 )  
               b(3) = (  0.000000  0.000000  0.198219 )  


     PseudoPot. # 1 for Cu read from file:
     /work/gf93/f93007/QE/pseudo/Cu.pbe-dn-kjpaw_psl.1.0.0.UPF
     MD5 check sum: 67c40f9e1593dc2d139023e70404cc2a
     Pseudo is Projector augmented-wave + core cor, Zval = 11.0
     Generated using "atomic" code by A. Dal Corso  v.6.1 svn rev. 13369
     Shape of augmentation charge: PSQ
     Using radial grid of 1199 points,  6 beta functions with: 
                l(1) =   0
                l(2) =   0
                l(3) =   1
                l(4) =   1
                l(5) =   2
                l(6) =   2
     Q(r) pseudized with 0 coefficients 


     PseudoPot. # 2 for  C read from file:
     /work/gf93/f93007/QE/pseudo/C.pbe-n-kjpaw_psl.1.0.0.UPF
     MD5 check sum: 92a742b3ac0ce1af44b5aa3f9352ca21
     Pseudo is Projector augmented-wave + core cor, Zval =  4.0
     Generated using "atomic" code by A. Dal Corso  v.6.1 svn rev. 13369
     Shape of augmentation charge: PSQ
     Using radial grid of 1073 points,  4 beta functions with: 
                l(1) =   0
                l(2) =   0
                l(3) =   1
                l(4) =   1
     Q(r) pseudized with 0 coefficients 


     PseudoPot. # 3 for  O read from file:
     /work/gf93/f93007/QE/pseudo/O.pbe-n-kjpaw_psl.1.0.0.UPF
     MD5 check sum: c61d840054b6bba219e553541e327118
     Pseudo is Projector augmented-wave + core cor, Zval =  6.0
     Generated using "atomic" code by A. Dal Corso  v.6.1 svn rev. 13369
     Shape of augmentation charge: PSQ
     Using radial grid of 1095 points,  4 beta functions with: 
                l(1) =   0
                l(2) =   0
                l(3) =   1
                l(4) =   1
     Q(r) pseudized with 0 coefficients 


     vdW kernel table read from file vdW_kernel_table
     MD5 check sum: 6d69797d2e858e93e031fb7d16d30e50

     atomic species   valence    mass     pseudopotential
        Cu            11.00    63.54600     Cu( 1.00)
        C              4.00    12.01100      C( 1.00)
        O              6.00    15.99900      O( 1.00)

     No symmetry found


                                    s                        frac. trans.

      isym =  1     identity                                     

 cryst.   s( 1) = (     1          0          0      )
                  (     0          1          0      )
                  (     0          0          1      )

 cart.    s( 1) = (  1.0000000  0.0000000  0.0000000 )
                  (  0.0000000  1.0000000  0.0000000 )
                  (  0.0000000  0.0000000  1.0000000 )


   Cartesian axes

     site n.     atom                  positions (alat units)
         1           Cu  tau(   1) = (   0.0000000   0.0000000  -0.8248888  )
         2           Cu  tau(   2) = (   0.3333333   0.0000000  -0.8248888  )
         3           Cu  tau(   3) = (   0.6666667   0.0000000  -0.8248888  )
         4           Cu  tau(   4) = (   0.1666667   0.2886751  -0.8248888  )
         5           Cu  tau(   5) = (   0.5000000   0.2886751  -0.8248888  )
         6           Cu  tau(   6) = (   0.8333333   0.2886751  -0.8248888  )
         7           Cu  tau(   7) = (   0.3333333   0.5773503  -0.8248888  )
         8           Cu  tau(   8) = (   0.6666667   0.5773503  -0.8248888  )
         9           Cu  tau(   9) = (   1.0000000   0.5773503  -0.8248888  )
        10           Cu  tau(  10) = (   0.1679527   0.0969677  -0.5550278  )
        11           Cu  tau(  11) = (   0.5000001   0.0963555  -0.5546924  )
        12           Cu  tau(  12) = (   0.8320475   0.0969677  -0.5550278  )
        13           Cu  tau(  13) = (   0.3334463   0.3848350  -0.5546924  )
        14           Cu  tau(  14) = (   0.6665540   0.3848351  -0.5546924  )
        15           Cu  tau(  15) = (   1.0000000   0.3851225  -0.5554971  )
        16           Cu  tau(  16) = (   0.5000002   0.6720902  -0.5550277  )
        17           Cu  tau(  17) = (   0.8335259   0.6734639  -0.5554970  )
        18           Cu  tau(  18) = (   1.1664742   0.6734639  -0.5554970  )
        19           Cu  tau(  19) = (   0.0000002   0.1919045  -0.2895402  )
        20           Cu  tau(  20) = (   0.3359748   0.1939752  -0.2811846  )
        21           Cu  tau(  21) = (   0.6640256   0.1939752  -0.2811846  )
        22           Cu  tau(  22) = (   0.1667941   0.4810516  -0.2872685  )
        23           Cu  tau(  23) = (   0.5000002   0.4780753  -0.2811846  )
        24           Cu  tau(  24) = (   0.8332061   0.4810517  -0.2872684  )
        25           Cu  tau(  25) = (   0.3338062   0.7700731  -0.2895404  )
        26           Cu  tau(  26) = (   0.6661942   0.7700731  -0.2895403  )
        27           Cu  tau(  27) = (   1.0000001   0.7699472  -0.2872685  )
        28           Cu  tau(  28) = (   0.0000000   0.0000002  -0.0207473  )
        29           Cu  tau(  29) = (   0.3317716  -0.0034666  -0.0198287  )
        30           Cu  tau(  30) = (   0.6682285  -0.0034665  -0.0198288  )
        31           Cu  tau(  31) = (   0.1628835   0.2890560  -0.0198289  )
        32           Cu  tau(  32) = (   0.5000001   0.2886752   0.0000000  )
        33           Cu  tau(  33) = (   0.8371164   0.2890560  -0.0198289  )
        34           Cu  tau(  34) = (   0.3311120   0.5804359  -0.0198289  )
        35           Cu  tau(  35) = (   0.6688881   0.5804359  -0.0198288  )
        36           Cu  tau(  36) = (   1.0000000   0.5773501  -0.0191733  )
        37           C   tau(  37) = (   0.4999994   0.2886747   0.2384536  )
        38           O   tau(  38) = (   0.4999989   0.2886744   0.3848034  )

   Crystallographic axes

     site n.     atom                  positions (cryst. coord.)
         1           Cu  tau(   1) = (  0.0000000  0.0000000 -0.1635089  )
         2           Cu  tau(   2) = (  0.3333333  0.0000000 -0.1635089  )
         3           Cu  tau(   3) = (  0.6666667  0.0000000 -0.1635089  )
         4           Cu  tau(   4) = ( -0.0000001  0.3333335 -0.1635089  )
         5           Cu  tau(   5) = (  0.3333333  0.3333335 -0.1635089  )
         6           Cu  tau(   6) = (  0.6666666  0.3333335 -0.1635089  )
         7           Cu  tau(   7) = ( -0.0000002  0.6666670 -0.1635089  )
         8           Cu  tau(   8) = (  0.3333332  0.6666670 -0.1635089  )
         9           Cu  tau(   9) = (  0.6666665  0.6666670 -0.1635089  )
        10           Cu  tau(  10) = (  0.1119684  0.1119687 -0.1100172  )
        11           Cu  tau(  11) = (  0.4443691  0.1112618 -0.1099508  )
        12           Cu  tau(  12) = (  0.7760631  0.1119687 -0.1100172  )
        13           Cu  tau(  13) = (  0.1112615  0.4443694 -0.1099508  )
        14           Cu  tau(  14) = (  0.4443692  0.4443695 -0.1099507  )
        15           Cu  tau(  15) = (  0.7776494  0.4447013 -0.1101102  )
        16           Cu  tau(  16) = (  0.1119685  0.7760633 -0.1100172  )
        17           Cu  tau(  17) = (  0.4447012  0.7776495 -0.1101102  )
        18           Cu  tau(  18) = (  0.7776494  0.7776495 -0.1101102  )
        19           Cu  tau(  19) = ( -0.1107960  0.2215923 -0.0573925  )
        20           Cu  tau(  20) = (  0.2239831  0.2239834 -0.0557362  )
        21           Cu  tau(  21) = (  0.5520338  0.2239834 -0.0557362  )
        22           Cu  tau(  22) = ( -0.1109413  0.5554709 -0.0569422  )
        23           Cu  tau(  23) = (  0.2239831  0.5520341 -0.0557362  )
        24           Cu  tau(  24) = (  0.5554707  0.5554709 -0.0569421  )
        25           Cu  tau(  25) = ( -0.1107959  0.8892042 -0.0573925  )
        26           Cu  tau(  26) = (  0.2215921  0.8892042 -0.0573925  )
        27           Cu  tau(  27) = (  0.5554707  0.8890589 -0.0569422  )
        28           Cu  tau(  28) = ( -0.0000001  0.0000002 -0.0041125  )
        29           Cu  tau(  29) = (  0.3337730 -0.0040029 -0.0039304  )
        30           Cu  tau(  30) = (  0.6702299 -0.0040028 -0.0039305  )
        31           Cu  tau(  31) = ( -0.0040031  0.3337733 -0.0039305  )
        32           Cu  tau(  32) = (  0.3333333  0.3333336  0.0000000  )
        33           Cu  tau(  33) = (  0.6702298  0.3337733 -0.0039305  )
        34           Cu  tau(  34) = ( -0.0040030  0.6702300 -0.0039305  )
        35           Cu  tau(  35) = (  0.3337731  0.6702300 -0.0039305  )
        36           Cu  tau(  36) = (  0.6666666  0.6666667 -0.0038005  )
        37           C   tau(  37) = (  0.3333329  0.3333330  0.0472661  )
        38           O   tau(  38) = (  0.3333326  0.3333326  0.0762755  )

     number of k points=    34  Marzari-Vanderbilt smearing, width (Ry)=  0.0073
                       cart. coord. in units 2pi/alat
        k(    1) = (   0.0000000   0.0000000   0.0000000), wk =   0.0312500
        k(    2) = (   0.0000000   0.1443376   0.0000000), wk =   0.0625000
        k(    3) = (   0.0000000   0.2886753   0.0000000), wk =   0.0625000
        k(    4) = (   0.0000000   0.4330129   0.0000000), wk =   0.0625000
        k(    5) = (   0.0000000  -0.5773505   0.0000000), wk =   0.0312500
        k(    6) = (   0.1250000  -0.0721688   0.0000000), wk =   0.0625000
        k(    7) = (   0.1250000   0.0721688   0.0000000), wk =   0.0625000
        k(    8) = (   0.1250000   0.2165065   0.0000000), wk =   0.0625000
        k(    9) = (   0.1250000   0.3608441   0.0000000), wk =   0.0625000
        k(   10) = (   0.1250000  -0.6495194   0.0000000), wk =   0.0625000
        k(   11) = (   0.1250000  -0.5051817   0.0000000), wk =   0.0625000
        k(   12) = (   0.1250000  -0.3608441   0.0000000), wk =   0.0625000
        k(   13) = (   0.1250000  -0.2165065   0.0000000), wk =   0.0625000
        k(   14) = (   0.2500000  -0.1443376   0.0000000), wk =   0.0625000
        k(   15) = (   0.2500000   0.0000000   0.0000000), wk =   0.0625000
        k(   16) = (   0.2500000   0.1443376   0.0000000), wk =   0.0625000
        k(   17) = (   0.2500000   0.2886753   0.0000000), wk =   0.0625000
        k(   18) = (   0.2500000  -0.7216882   0.0000000), wk =   0.0625000
        k(   19) = (   0.2500000  -0.5773505   0.0000000), wk =   0.0625000
        k(   20) = (   0.2500000  -0.4330129   0.0000000), wk =   0.0625000
        k(   21) = (   0.2500000  -0.2886753   0.0000000), wk =   0.0625000
        k(   22) = (   0.3750000  -0.2165065   0.0000000), wk =   0.0625000
        k(   23) = (   0.3750000  -0.0721688   0.0000000), wk =   0.0625000
        k(   24) = (   0.3750000   0.0721688   0.0000000), wk =   0.0625000
        k(   25) = (   0.3750000   0.2165065   0.0000000), wk =   0.0625000
        k(   26) = (   0.3750000  -0.7938570   0.0000000), wk =   0.0625000
        k(   27) = (   0.3750000  -0.6495194   0.0000000), wk =   0.0625000
        k(   28) = (   0.3750000  -0.5051817   0.0000000), wk =   0.0625000
        k(   29) = (   0.3750000  -0.3608441   0.0000000), wk =   0.0625000
        k(   30) = (  -0.5000000   0.2886753   0.0000000), wk =   0.0312500
        k(   31) = (  -0.5000000   0.4330129   0.0000000), wk =   0.0625000
        k(   32) = (  -0.5000000   0.5773505   0.0000000), wk =   0.0625000
        k(   33) = (  -0.5000000   0.7216882   0.0000000), wk =   0.0625000
        k(   34) = (  -0.5000000  -0.2886753   0.0000000), wk =   0.0312500

                       cryst. coord.
        k(    1) = (   0.0000000   0.0000000   0.0000000), wk =   0.0312500
        k(    2) = (   0.0000000   0.1250000   0.0000000), wk =   0.0625000
        k(    3) = (   0.0000000   0.2500000   0.0000000), wk =   0.0625000
        k(    4) = (   0.0000000   0.3750000   0.0000000), wk =   0.0625000
        k(    5) = (   0.0000000  -0.5000000   0.0000000), wk =   0.0312500
        k(    6) = (   0.1250000   0.0000000   0.0000000), wk =   0.0625000
        k(    7) = (   0.1250000   0.1250000   0.0000000), wk =   0.0625000
        k(    8) = (   0.1250000   0.2500000   0.0000000), wk =   0.0625000
        k(    9) = (   0.1250000   0.3750000   0.0000000), wk =   0.0625000
        k(   10) = (   0.1250000  -0.5000000   0.0000000), wk =   0.0625000
        k(   11) = (   0.1250000  -0.3750000   0.0000000), wk =   0.0625000
        k(   12) = (   0.1250000  -0.2500000   0.0000000), wk =   0.0625000
        k(   13) = (   0.1250000  -0.1250000   0.0000000), wk =   0.0625000
        k(   14) = (   0.2500000   0.0000000   0.0000000), wk =   0.0625000
        k(   15) = (   0.2500000   0.1250000   0.0000000), wk =   0.0625000
        k(   16) = (   0.2500000   0.2500000   0.0000000), wk =   0.0625000
        k(   17) = (   0.2500000   0.3750000   0.0000000), wk =   0.0625000
        k(   18) = (   0.2500000  -0.5000000   0.0000000), wk =   0.0625000
        k(   19) = (   0.2500000  -0.3750000   0.0000000), wk =   0.0625000
        k(   20) = (   0.2500000  -0.2500000   0.0000000), wk =   0.0625000
        k(   21) = (   0.2500000  -0.1250000   0.0000000), wk =   0.0625000
        k(   22) = (   0.3750000   0.0000000   0.0000000), wk =   0.0625000
        k(   23) = (   0.3750000   0.1250000   0.0000000), wk =   0.0625000
        k(   24) = (   0.3750000   0.2500000   0.0000000), wk =   0.0625000
        k(   25) = (   0.3750000   0.3750000   0.0000000), wk =   0.0625000
        k(   26) = (   0.3750000  -0.5000000   0.0000000), wk =   0.0625000
        k(   27) = (   0.3750000  -0.3750000   0.0000000), wk =   0.0625000
        k(   28) = (   0.3750000  -0.2500000   0.0000000), wk =   0.0625000
        k(   29) = (   0.3750000  -0.1250000   0.0000000), wk =   0.0625000
        k(   30) = (  -0.5000000   0.0000000   0.0000000), wk =   0.0312500
        k(   31) = (  -0.5000000   0.1250000   0.0000000), wk =   0.0625000
        k(   32) = (  -0.5000000   0.2500000   0.0000000), wk =   0.0625000
        k(   33) = (  -0.5000000   0.3750000   0.0000000), wk =   0.0625000
        k(   34) = (  -0.5000000  -0.5000000   0.0000000), wk =   0.0312500

     Dense  grid:  3875677 G-vectors     FFT dimensions: ( 120, 120, 625)

     Smooth grid:   980529 G-vectors     FFT dimensions: (  75,  75, 384)

     Estimated max dynamical RAM per process >     140.99MB

     Estimated total allocated dynamical RAM >   33838.49MB

     Solute:
       # atom     E (kcal/mol)  S (angs)
       1  Cu      1.00000000    3.00000000    given
       2  Cu      1.00000000    3.00000000    given
       3  Cu      1.00000000    3.00000000    given
       4  Cu      1.00000000    3.00000000    given
       5  Cu      1.00000000    3.00000000    given
       6  Cu      1.00000000    3.00000000    given
       7  Cu      1.00000000    3.00000000    given
       8  Cu      1.00000000    3.00000000    given
       9  Cu      1.00000000    3.00000000    given
      10  Cu      1.00000000    3.00000000    given
      11  Cu      1.00000000    3.00000000    given
      12  Cu      1.00000000    3.00000000    given
      13  Cu      1.00000000    3.00000000    given
      14  Cu      1.00000000    3.00000000    given
      15  Cu      1.00000000    3.00000000    given
      16  Cu      1.00000000    3.00000000    given
      17  Cu      1.00000000    3.00000000    given
      18  Cu      1.00000000    3.00000000    given
      19  Cu      1.00000000    3.00000000    given
      20  Cu      1.00000000    3.00000000    given
      21  Cu      1.00000000    3.00000000    given
      22  Cu      1.00000000    3.00000000    given
      23  Cu      1.00000000    3.00000000    given
      24  Cu      1.00000000    3.00000000    given
      25  Cu      1.00000000    3.00000000    given
      26  Cu      1.00000000    3.00000000    given
      27  Cu      1.00000000    3.00000000    given
      28  Cu      1.00000000    3.00000000    given
      29  Cu      1.00000000    3.00000000    given
      30  Cu      1.00000000    3.00000000    given
      31  Cu      1.00000000    3.00000000    given
      32  Cu      1.00000000    3.00000000    given
      33  Cu      1.00000000    3.00000000    given
      34  Cu      1.00000000    3.00000000    given
      35  Cu      1.00000000    3.00000000    given
      36  Cu      1.00000000    3.00000000    given
      37  C       0.07000000    3.55000000    OPLS-AA
      38  O       0.17000000    3.00000000    OPLS-AA

     Wall:
       Density =    0.01000000  bohr^-3
       E       =    0.10000000  kcal/mol
       S       =    4.00000000  angs

     L.J. cutoff radius =       5.0000  S


     Laue-RISM info
     --------------
     closure equation        =           KH
     temperature             =     300.0000  kelvin
     coulomb smearing radius =       2.0000  bohr
     number of solvent sites =            6
     solvent sites           =    O/h2o   H/h2o   L/h2o       K
     solvent sites           =     O/oh    H/oh
     #R-grids in local       =        11250
     #Rz-grids (unit-cell)   =          384
     #Rz-grids (expand-cell) =          720
     #G-grids in local       =         4081
     #Gxy-grids in local     =           17
     #Gxy-shells in local    =           17
     number of iterations    =        10000
     convergence threshold   =      1.0E-06
     convergence level       =       0.8000
     size of MDIIS           =           20
     step of MDIIS           =       0.8000
     solvent cutoff          =     249.8954  Ry
     Custom grid:   980529 G-vectors     FFT dimensions: (  75,  75, 384)

     Boundary Conditions        : Vacuum-Slab-Solvent
     unit-cell (in bohr)        : [ -37.794523  37.794523]
     expand-cell (in bohr)      : [ -37.794523 103.934937]
     solvent of right (in bohr) : [  -8.267552 103.934937]
     buffer  of right (in bohr) : [ -18.109875  -8.267552]
     Gxy = 0 of right (in bohr) : [ -18.109875  82.872365]
     repulsive wall (in bohr)   : [  -Infinity -10.486273]
     reference of potential     : right-hand side
     #grids to fit at edges of unit-cell =    4
     Laue grid:     3865 Gxy-vectors     FFT dimensions: (  75,  75, 720)


     MPI for site:
     number of site groups     =            1
     #procs in a site group    =          240
     this proc in a site group =            0
     the root in a site group  =            0
     this site group           =            0
     inter-site group comm.    =           23
     intra-site group comm.    =            5
     total number of sites     =            6
     starting index of sites   =            1
     ending index of sites     =            6


     MPI for task:
     #procs in a task group    =          240
     this proc in a task group =            0
     the root in a task group  =            0
     task group comm.          =            5


     Initial potential from superposition of free atoms
     Check: negative starting charge=   -0.001648

     starting charge  405.99177, renormalised to  406.00000

     Correlation function is read from file


     negative rho (up, down):  1.648E-03 0.000E+00


     %%%%%%%%%%%%%%%%%%%%%%%%%%%%%%%%%%%%%%%%%%%%%%%%%%%%%%%%%%%%%%%%%%%%%%%%
     %                                                                      %
     % You are using vdW-DF, which was implemented by the Thonhauser group. %
     % Please cite the following two papers that made this development      %
     % possible and the two reviews that describe the various versions:     %
     %                                                                      %
     %   T. Thonhauser et al., PRL 115, 136402 (2015).                      %
     %   T. Thonhauser et al., PRB 76, 125112 (2007).                       %
     %   K. Berland et al., Rep. Prog. Phys. 78, 066501 (2015).             %
     %   D.C. Langreth et al., J. Phys.: Condens. Matter 21, 084203 (2009). %
     %                                                                      %
     %                                                                      %
     % If you are calculating the stress with vdW-DF, please also cite:     %
     %                                                                      %
     %   R. Sabatini et al., J. Phys.: Condens. Matter 24, 424209 (2012).   %
     %                                                                      %
     %%%%%%%%%%%%%%%%%%%%%%%%%%%%%%%%%%%%%%%%%%%%%%%%%%%%%%%%%%%%%%%%%%%%%%%%


     Carrying out vdW-DF run using the following parameters:
     Nqs    =  20  Npoints =  1024  r_max =  100.000
     q_mesh =  0.00001000  0.04494208  0.09755937  0.15916263
               0.23128650  0.31572767  0.41458969  0.53033537
               0.66584808  0.82450364  1.01025438  1.22772762
               1.48234092  1.78043706  2.12944203  2.53805004
               3.01644009  3.57652955  4.23227104  5.00000000


     -----------------------------------------------
     Non-local corr. energy    =      22.28429092 Ry
     -----------------------------------------------


     Laue-RISM Calculation

     convergence threshold    = 6.310E-06
     iter. #     1  RMS(g-h-1)= 4.914E-02  nbox=  0
     iter. #     2  RMS(g-h-1)= 3.731E-02  nbox=  1
     iter. #     3  RMS(g-h-1)= 2.251E-02  nbox=  2
     iter. #     4  RMS(g-h-1)= 9.555E-03  nbox=  3
     iter. #     5  RMS(g-h-1)= 8.244E-03  nbox=  4
     iter. #     6  RMS(g-h-1)= 6.930E-03  nbox=  5
     iter. #     7  RMS(g-h-1)= 6.005E-03  nbox=  6
     iter. #     8  RMS(g-h-1)= 5.441E-03  nbox=  7
     iter. #     9  RMS(g-h-1)= 5.015E-03  nbox=  8
     iter. #    10  RMS(g-h-1)= 4.783E-03  nbox=  9
     iter. #    11  RMS(g-h-1)= 4.471E-03  nbox= 10
     iter. #    12  RMS(g-h-1)= 4.123E-03  nbox= 11
     iter. #    13  RMS(g-h-1)= 3.807E-03  nbox= 12
     iter. #    14  RMS(g-h-1)= 3.567E-03  nbox= 13
     iter. #    15  RMS(g-h-1)= 3.415E-03  nbox= 14
     iter. #    16  RMS(g-h-1)= 3.157E-03  nbox= 15
     iter. #    17  RMS(g-h-1)= 2.791E-03  nbox= 16
     iter. #    18  RMS(g-h-1)= 2.553E-03  nbox= 17
     iter. #    19  RMS(g-h-1)= 2.335E-03  nbox= 18
     iter. #    20  RMS(g-h-1)= 2.105E-03  nbox= 19
     iter. #    21  RMS(g-h-1)= 1.891E-03  nbox= 20
     iter. #    22  RMS(g-h-1)= 1.778E-03  nbox= 20
     iter. #    23  RMS(g-h-1)= 1.679E-03  nbox= 20
     iter. #    24  RMS(g-h-1)= 1.582E-03  nbox= 20
     iter. #    25  RMS(g-h-1)= 1.509E-03  nbox= 20
     iter. #    26  RMS(g-h-1)= 1.481E-03  nbox= 20
     iter. #    27  RMS(g-h-1)= 1.418E-03  nbox= 20
     iter. #    28  RMS(g-h-1)= 1.368E-03  nbox= 20
     iter. #    29  RMS(g-h-1)= 1.341E-03  nbox= 20
     iter. #    30  RMS(g-h-1)= 1.299E-03  nbox= 20
     iter. #    31  RMS(g-h-1)= 1.248E-03  nbox= 20
     iter. #    32  RMS(g-h-1)= 1.205E-03  nbox= 20
     iter. #    33  RMS(g-h-1)= 1.184E-03  nbox= 20
     iter. #    34  RMS(g-h-1)= 1.145E-03  nbox= 20
     iter. #    35  RMS(g-h-1)= 1.124E-03  nbox= 20
     iter. #    36  RMS(g-h-1)= 1.088E-03  nbox= 20
     iter. #    37  RMS(g-h-1)= 1.030E-03  nbox= 20
     iter. #    38  RMS(g-h-1)= 1.007E-03  nbox= 20
     iter. #    39  RMS(g-h-1)= 9.838E-04  nbox= 20
     iter. #    40  RMS(g-h-1)= 9.544E-04  nbox= 20
     iter. #    41  RMS(g-h-1)= 9.483E-04  nbox= 20
     iter. #    42  RMS(g-h-1)= 9.240E-04  nbox= 20
     iter. #    43  RMS(g-h-1)= 8.880E-04  nbox= 20
     iter. #    44  RMS(g-h-1)= 8.661E-04  nbox= 20
     iter. #    45  RMS(g-h-1)= 8.625E-04  nbox= 20
     iter. #    46  RMS(g-h-1)= 8.461E-04  nbox= 20
     iter. #    47  RMS(g-h-1)= 8.299E-04  nbox= 20
     iter. #    48  RMS(g-h-1)= 8.258E-04  nbox= 20
     iter. #    49  RMS(g-h-1)= 8.145E-04  nbox= 20
     iter. #    50  RMS(g-h-1)= 7.989E-04  nbox= 20
     iter. #    51  RMS(g-h-1)= 7.945E-04  nbox= 20
     iter. #    52  RMS(g-h-1)= 7.744E-04  nbox= 20
     iter. #    53  RMS(g-h-1)= 7.515E-04  nbox= 20
     iter. #    54  RMS(g-h-1)= 7.509E-04  nbox=  2
     iter. #    55  RMS(g-h-1)= 7.342E-04  nbox=  3
     iter. #    56  RMS(g-h-1)= 7.263E-04  nbox=  4
     iter. #    57  RMS(g-h-1)= 7.116E-04  nbox=  5
     iter. #    58  RMS(g-h-1)= 7.132E-04  nbox=  6
     iter. #    59  RMS(g-h-1)= 6.948E-04  nbox=  7
     iter. #    60  RMS(g-h-1)= 6.837E-04  nbox=  8
     iter. #    61  RMS(g-h-1)= 6.714E-04  nbox=  9
     iter. #    62  RMS(g-h-1)= 6.581E-04  nbox= 10
     iter. #    63  RMS(g-h-1)= 6.548E-04  nbox= 11
     iter. #    64  RMS(g-h-1)= 6.388E-04  nbox= 12
     iter. #    65  RMS(g-h-1)= 6.318E-04  nbox= 13
     iter. #    66  RMS(g-h-1)= 6.186E-04  nbox= 14
     iter. #    67  RMS(g-h-1)= 6.033E-04  nbox= 15
     iter. #    68  RMS(g-h-1)= 5.962E-04  nbox= 16
     iter. #    69  RMS(g-h-1)= 5.805E-04  nbox= 17
     iter. #    70  RMS(g-h-1)= 5.804E-04  nbox=  2
     iter. #    71  RMS(g-h-1)= 5.690E-04  nbox=  3
     iter. #    72  RMS(g-h-1)= 5.609E-04  nbox=  4
     iter. #    73  RMS(g-h-1)= 5.576E-04  nbox=  5
     iter. #    74  RMS(g-h-1)= 5.459E-04  nbox=  6
     iter. #    75  RMS(g-h-1)= 5.341E-04  nbox=  7
     iter. #    76  RMS(g-h-1)= 5.237E-04  nbox=  8
     iter. #    77  RMS(g-h-1)= 5.074E-04  nbox=  9
     iter. #    78  RMS(g-h-1)= 5.087E-04  nbox= 10
     iter. #    79  RMS(g-h-1)= 4.903E-04  nbox= 11
     iter. #    80  RMS(g-h-1)= 4.739E-04  nbox= 12
     iter. #    81  RMS(g-h-1)= 4.688E-04  nbox= 13
     iter. #    82  RMS(g-h-1)= 4.526E-04  nbox= 14
     iter. #    83  RMS(g-h-1)= 4.470E-04  nbox= 15
     iter. #    84  RMS(g-h-1)= 4.384E-04  nbox= 16
     iter. #    85  RMS(g-h-1)= 4.306E-04  nbox= 17
     iter. #    86  RMS(g-h-1)= 4.282E-04  nbox=  2
     iter. #    87  RMS(g-h-1)= 4.202E-04  nbox=  3
     iter. #    88  RMS(g-h-1)= 4.122E-04  nbox=  4
     iter. #    89  RMS(g-h-1)= 4.065E-04  nbox=  5
     iter. #    90  RMS(g-h-1)= 3.990E-04  nbox=  6
     iter. #    91  RMS(g-h-1)= 3.911E-04  nbox=  7
     iter. #    92  RMS(g-h-1)= 3.803E-04  nbox=  8
     iter. #    93  RMS(g-h-1)= 3.700E-04  nbox=  9
     iter. #    94  RMS(g-h-1)= 3.622E-04  nbox= 10
     iter. #    95  RMS(g-h-1)= 3.556E-04  nbox= 11
     iter. #    96  RMS(g-h-1)= 3.532E-04  nbox= 12
     iter. #    97  RMS(g-h-1)= 3.470E-04  nbox= 13
     iter. #    98  RMS(g-h-1)= 3.429E-04  nbox= 14
     iter. #    99  RMS(g-h-1)= 3.395E-04  nbox= 15
     iter. #   100  RMS(g-h-1)= 3.358E-04  nbox= 16
     iter. #   101  RMS(g-h-1)= 3.303E-04  nbox= 17
     iter. #   102  RMS(g-h-1)= 3.289E-04  nbox=  2
     iter. #   103  RMS(g-h-1)= 3.226E-04  nbox=  3
     iter. #   104  RMS(g-h-1)= 3.165E-04  nbox=  4
     iter. #   105  RMS(g-h-1)= 3.105E-04  nbox=  5
     iter. #   106  RMS(g-h-1)= 3.074E-04  nbox=  6
     iter. #   107  RMS(g-h-1)= 3.023E-04  nbox=  7
     iter. #   108  RMS(g-h-1)= 2.968E-04  nbox=  8
     iter. #   109  RMS(g-h-1)= 2.921E-04  nbox=  9
     iter. #   110  RMS(g-h-1)= 2.872E-04  nbox= 10
     iter. #   111  RMS(g-h-1)= 2.878E-04  nbox= 11
     iter. #   112  RMS(g-h-1)= 2.820E-04  nbox= 12
     iter. #   113  RMS(g-h-1)= 2.792E-04  nbox= 13
     iter. #   114  RMS(g-h-1)= 2.761E-04  nbox= 14
     iter. #   115  RMS(g-h-1)= 2.753E-04  nbox= 15
     iter. #   116  RMS(g-h-1)= 2.718E-04  nbox= 16
     iter. #   117  RMS(g-h-1)= 2.702E-04  nbox= 17
     iter. #   118  RMS(g-h-1)= 2.695E-04  nbox=  2
     iter. #   119  RMS(g-h-1)= 2.670E-04  nbox=  3
     iter. #   120  RMS(g-h-1)= 2.645E-04  nbox=  4
     iter. #   121  RMS(g-h-1)= 2.621E-04  nbox=  5
     iter. #   122  RMS(g-h-1)= 2.605E-04  nbox=  6
     iter. #   123  RMS(g-h-1)= 2.591E-04  nbox=  7
     iter. #   124  RMS(g-h-1)= 2.575E-04  nbox=  8
     iter. #   125  RMS(g-h-1)= 2.556E-04  nbox=  9
     iter. #   126  RMS(g-h-1)= 2.537E-04  nbox= 10
     iter. #   127  RMS(g-h-1)= 2.519E-04  nbox= 11
     iter. #   128  RMS(g-h-1)= 2.497E-04  nbox= 12
     iter. #   129  RMS(g-h-1)= 2.479E-04  nbox= 13
     iter. #   130  RMS(g-h-1)= 2.469E-04  nbox= 14
     iter. #   131  RMS(g-h-1)= 2.452E-04  nbox= 15
     iter. #   132  RMS(g-h-1)= 2.435E-04  nbox= 16
     iter. #   133  RMS(g-h-1)= 2.417E-04  nbox= 17
     iter. #   134  RMS(g-h-1)= 2.414E-04  nbox=  2
     iter. #   135  RMS(g-h-1)= 2.397E-04  nbox=  3
     iter. #   136  RMS(g-h-1)= 2.374E-04  nbox=  4
     iter. #   137  RMS(g-h-1)= 2.390E-04  nbox=  5
     iter. #   138  RMS(g-h-1)= 2.338E-04  nbox=  6
     iter. #   139  RMS(g-h-1)= 2.324E-04  nbox=  7
     iter. #   140  RMS(g-h-1)= 2.299E-04  nbox=  8
     iter. #   141  RMS(g-h-1)= 2.276E-04  nbox=  9
     iter. #   142  RMS(g-h-1)= 2.292E-04  nbox= 10
     iter. #   143  RMS(g-h-1)= 2.245E-04  nbox= 11
     iter. #   144  RMS(g-h-1)= 2.237E-04  nbox= 12
     iter. #   145  RMS(g-h-1)= 2.220E-04  nbox= 13
     iter. #   146  RMS(g-h-1)= 2.207E-04  nbox= 14
     iter. #   147  RMS(g-h-1)= 2.201E-04  nbox= 15
     iter. #   148  RMS(g-h-1)= 2.187E-04  nbox= 16
     iter. #   149  RMS(g-h-1)= 2.174E-04  nbox= 17
     iter. #   150  RMS(g-h-1)= 2.169E-04  nbox=  2
     iter. #   151  RMS(g-h-1)= 2.152E-04  nbox=  3
     iter. #   152  RMS(g-h-1)= 2.135E-04  nbox=  4
     iter. #   153  RMS(g-h-1)= 2.117E-04  nbox=  5
     iter. #   154  RMS(g-h-1)= 2.104E-04  nbox=  6
     iter. #   155  RMS(g-h-1)= 2.097E-04  nbox=  7
     iter. #   156  RMS(g-h-1)= 2.079E-04  nbox=  8
     iter. #   157  RMS(g-h-1)= 2.066E-04  nbox=  9
     iter. #   158  RMS(g-h-1)= 2.051E-04  nbox= 10
     iter. #   159  RMS(g-h-1)= 2.036E-04  nbox= 11
     iter. #   160  RMS(g-h-1)= 2.034E-04  nbox= 12
     iter. #   161  RMS(g-h-1)= 2.017E-04  nbox= 13
     iter. #   162  RMS(g-h-1)= 2.011E-04  nbox= 14
     iter. #   163  RMS(g-h-1)= 2.000E-04  nbox= 15
     iter. #   164  RMS(g-h-1)= 1.986E-04  nbox= 16
     iter. #   165  RMS(g-h-1)= 1.987E-04  nbox= 17
     iter. #   166  RMS(g-h-1)= 1.985E-04  nbox=  2
     iter. #   167  RMS(g-h-1)= 1.974E-04  nbox=  3
     iter. #   168  RMS(g-h-1)= 1.962E-04  nbox=  4
     iter. #   169  RMS(g-h-1)= 1.951E-04  nbox=  5
     iter. #   170  RMS(g-h-1)= 1.937E-04  nbox=  6
     iter. #   171  RMS(g-h-1)= 1.923E-04  nbox=  7
     iter. #   172  RMS(g-h-1)= 1.915E-04  nbox=  8
     iter. #   173  RMS(g-h-1)= 1.896E-04  nbox=  9
     iter. #   174  RMS(g-h-1)= 1.878E-04  nbox= 10
     iter. #   175  RMS(g-h-1)= 1.858E-04  nbox= 11
     iter. #   176  RMS(g-h-1)= 1.866E-04  nbox= 12
     iter. #   177  RMS(g-h-1)= 1.827E-04  nbox= 13
     iter. #   178  RMS(g-h-1)= 1.834E-04  nbox= 14
     iter. #   179  RMS(g-h-1)= 1.805E-04  nbox= 15
     iter. #   180  RMS(g-h-1)= 1.789E-04  nbox= 16
     iter. #   181  RMS(g-h-1)= 1.771E-04  nbox= 17
     iter. #   182  RMS(g-h-1)= 1.762E-04  nbox=  2
     iter. #   183  RMS(g-h-1)= 1.745E-04  nbox=  3
     iter. #   184  RMS(g-h-1)= 1.729E-04  nbox=  4
     iter. #   185  RMS(g-h-1)= 1.713E-04  nbox=  5
     iter. #   186  RMS(g-h-1)= 1.701E-04  nbox=  6
     iter. #   187  RMS(g-h-1)= 1.693E-04  nbox=  7
     iter. #   188  RMS(g-h-1)= 1.680E-04  nbox=  8
     iter. #   189  RMS(g-h-1)= 1.666E-04  nbox=  9
     iter. #   190  RMS(g-h-1)= 1.652E-04  nbox= 10
     iter. #   191  RMS(g-h-1)= 1.637E-04  nbox= 11
     iter. #   192  RMS(g-h-1)= 1.624E-04  nbox= 12
     iter. #   193  RMS(g-h-1)= 1.616E-04  nbox= 13
     iter. #   194  RMS(g-h-1)= 1.601E-04  nbox= 14
     iter. #   195  RMS(g-h-1)= 1.585E-04  nbox= 15
     iter. #   196  RMS(g-h-1)= 1.567E-04  nbox= 16
     iter. #   197  RMS(g-h-1)= 1.551E-04  nbox= 17
     iter. #   198  RMS(g-h-1)= 1.545E-04  nbox=  2
     iter. #   199  RMS(g-h-1)= 1.523E-04  nbox=  3
     iter. #   200  RMS(g-h-1)= 1.504E-04  nbox=  4
     iter. #   201  RMS(g-h-1)= 1.487E-04  nbox=  5
     iter. #   202  RMS(g-h-1)= 1.477E-04  nbox=  6
     iter. #   203  RMS(g-h-1)= 1.463E-04  nbox=  7
     iter. #   204  RMS(g-h-1)= 1.450E-04  nbox=  8
     iter. #   205  RMS(g-h-1)= 1.436E-04  nbox=  9
     iter. #   206  RMS(g-h-1)= 1.423E-04  nbox= 10
     iter. #   207  RMS(g-h-1)= 1.426E-04  nbox= 11
     iter. #   208  RMS(g-h-1)= 1.400E-04  nbox= 12
     iter. #   209  RMS(g-h-1)= 1.398E-04  nbox= 13
     iter. #   210  RMS(g-h-1)= 1.382E-04  nbox= 14
     iter. #   211  RMS(g-h-1)= 1.370E-04  nbox= 15
     iter. #   212  RMS(g-h-1)= 1.358E-04  nbox= 16
     iter. #   213  RMS(g-h-1)= 1.344E-04  nbox= 17
     iter. #   214  RMS(g-h-1)= 1.341E-04  nbox=  2
     iter. #   215  RMS(g-h-1)= 1.325E-04  nbox=  3
     iter. #   216  RMS(g-h-1)= 1.312E-04  nbox=  4
     iter. #   217  RMS(g-h-1)= 1.303E-04  nbox=  5
     iter. #   218  RMS(g-h-1)= 1.297E-04  nbox=  6
     iter. #   219  RMS(g-h-1)= 1.290E-04  nbox=  7
     iter. #   220  RMS(g-h-1)= 1.280E-04  nbox=  8
     iter. #   221  RMS(g-h-1)= 1.272E-04  nbox=  9
     iter. #   222  RMS(g-h-1)= 1.263E-04  nbox= 10
     iter. #   223  RMS(g-h-1)= 1.251E-04  nbox= 11
     iter. #   224  RMS(g-h-1)= 1.260E-04  nbox= 12
     iter. #   225  RMS(g-h-1)= 1.235E-04  nbox= 13
     iter. #   226  RMS(g-h-1)= 1.228E-04  nbox= 14
     iter. #   227  RMS(g-h-1)= 1.217E-04  nbox= 15
     iter. #   228  RMS(g-h-1)= 1.204E-04  nbox= 16
     iter. #   229  RMS(g-h-1)= 1.193E-04  nbox= 17
     iter. #   230  RMS(g-h-1)= 1.191E-04  nbox=  2
     iter. #   231  RMS(g-h-1)= 1.176E-04  nbox=  3
     iter. #   232  RMS(g-h-1)= 1.166E-04  nbox=  4
     iter. #   233  RMS(g-h-1)= 1.153E-04  nbox=  5
     iter. #   234  RMS(g-h-1)= 1.145E-04  nbox=  6
     iter. #   235  RMS(g-h-1)= 1.136E-04  nbox=  7
     iter. #   236  RMS(g-h-1)= 1.125E-04  nbox=  8
     iter. #   237  RMS(g-h-1)= 1.114E-04  nbox=  9
     iter. #   238  RMS(g-h-1)= 1.103E-04  nbox= 10
     iter. #   239  RMS(g-h-1)= 1.092E-04  nbox= 11
     iter. #   240  RMS(g-h-1)= 1.082E-04  nbox= 12
     iter. #   241  RMS(g-h-1)= 1.075E-04  nbox= 13
     iter. #   242  RMS(g-h-1)= 1.064E-04  nbox= 14
     iter. #   243  RMS(g-h-1)= 1.052E-04  nbox= 15
     iter. #   244  RMS(g-h-1)= 1.038E-04  nbox= 16
     iter. #   245  RMS(g-h-1)= 1.025E-04  nbox= 17
     iter. #   246  RMS(g-h-1)= 1.023E-04  nbox=  2
     iter. #   247  RMS(g-h-1)= 1.009E-04  nbox=  3
     iter. #   248  RMS(g-h-1)= 9.971E-05  nbox=  4
     iter. #   249  RMS(g-h-1)= 9.885E-05  nbox=  5
     iter. #   250  RMS(g-h-1)= 9.807E-05  nbox=  6
     iter. #   251  RMS(g-h-1)= 9.712E-05  nbox=  7
     iter. #   252  RMS(g-h-1)= 9.606E-05  nbox=  8
     iter. #   253  RMS(g-h-1)= 9.485E-05  nbox=  9
     iter. #   254  RMS(g-h-1)= 9.382E-05  nbox= 10
     iter. #   255  RMS(g-h-1)= 9.257E-05  nbox= 11
     iter. #   256  RMS(g-h-1)= 9.151E-05  nbox= 12
     iter. #   257  RMS(g-h-1)= 9.087E-05  nbox= 13
     iter. #   258  RMS(g-h-1)= 8.954E-05  nbox= 14
     iter. #   259  RMS(g-h-1)= 8.825E-05  nbox= 15
     iter. #   260  RMS(g-h-1)= 8.705E-05  nbox= 16
     iter. #   261  RMS(g-h-1)= 8.559E-05  nbox= 17
     iter. #   262  RMS(g-h-1)= 8.551E-05  nbox=  2
     iter. #   263  RMS(g-h-1)= 8.422E-05  nbox=  3
     iter. #   264  RMS(g-h-1)= 8.322E-05  nbox=  4
     iter. #   265  RMS(g-h-1)= 8.246E-05  nbox=  5
     iter. #   266  RMS(g-h-1)= 8.201E-05  nbox=  6
     iter. #   267  RMS(g-h-1)= 8.101E-05  nbox=  7
     iter. #   268  RMS(g-h-1)= 8.028E-05  nbox=  8
     iter. #   269  RMS(g-h-1)= 7.951E-05  nbox=  9
     iter. #   270  RMS(g-h-1)= 7.882E-05  nbox= 10
     iter. #   271  RMS(g-h-1)= 7.815E-05  nbox= 11
     iter. #   272  RMS(g-h-1)= 7.736E-05  nbox= 12
     iter. #   273  RMS(g-h-1)= 7.727E-05  nbox= 13
     iter. #   274  RMS(g-h-1)= 7.641E-05  nbox= 14
     iter. #   275  RMS(g-h-1)= 7.563E-05  nbox= 15
     iter. #   276  RMS(g-h-1)= 7.497E-05  nbox= 16
     iter. #   277  RMS(g-h-1)= 7.420E-05  nbox= 17
     iter. #   278  RMS(g-h-1)= 7.407E-05  nbox=  2
     iter. #   279  RMS(g-h-1)= 7.342E-05  nbox=  3
     iter. #   280  RMS(g-h-1)= 7.275E-05  nbox=  4
     iter. #   281  RMS(g-h-1)= 7.225E-05  nbox=  5
     iter. #   282  RMS(g-h-1)= 7.181E-05  nbox=  6
     iter. #   283  RMS(g-h-1)= 7.134E-05  nbox=  7
     iter. #   284  RMS(g-h-1)= 7.070E-05  nbox=  8
     iter. #   285  RMS(g-h-1)= 7.007E-05  nbox=  9
     iter. #   286  RMS(g-h-1)= 6.942E-05  nbox= 10
     iter. #   287  RMS(g-h-1)= 6.883E-05  nbox= 11
     iter. #   288  RMS(g-h-1)= 6.833E-05  nbox= 12
     iter. #   289  RMS(g-h-1)= 6.809E-05  nbox= 13
     iter. #   290  RMS(g-h-1)= 6.764E-05  nbox= 14
     iter. #   291  RMS(g-h-1)= 6.724E-05  nbox= 15
     iter. #   292  RMS(g-h-1)= 6.686E-05  nbox= 16
     iter. #   293  RMS(g-h-1)= 6.648E-05  nbox= 17
     iter. #   294  RMS(g-h-1)= 6.646E-05  nbox=  2
     iter. #   295  RMS(g-h-1)= 6.605E-05  nbox=  3
     iter. #   296  RMS(g-h-1)= 6.575E-05  nbox=  4
     iter. #   297  RMS(g-h-1)= 6.547E-05  nbox=  5
     iter. #   298  RMS(g-h-1)= 6.596E-05  nbox=  6
     iter. #   299  RMS(g-h-1)= 6.469E-05  nbox=  7
     iter. #   300  RMS(g-h-1)= 6.451E-05  nbox=  8
     iter. #   301  RMS(g-h-1)= 6.411E-05  nbox=  9
     iter. #   302  RMS(g-h-1)= 6.375E-05  nbox= 10
     iter. #   303  RMS(g-h-1)= 6.338E-05  nbox= 11
     iter. #   304  RMS(g-h-1)= 6.311E-05  nbox= 12
     iter. #   305  RMS(g-h-1)= 6.287E-05  nbox= 13
     iter. #   306  RMS(g-h-1)= 6.256E-05  nbox= 14
     iter. #   307  RMS(g-h-1)= 6.225E-05  nbox= 15
     iter. #   308  RMS(g-h-1)= 6.193E-05  nbox= 16
     iter. #   309  RMS(g-h-1)= 6.242E-05  nbox= 17
     iter. #   310  RMS(g-h-1)= 6.282E-05  nbox=  2
     iter. #   311  RMS(g-h-1)= 6.159E-05  nbox=  3
     iter. #   312  RMS(g-h-1)= 6.139E-05  nbox=  4
     iter. #   313  RMS(g-h-1)= 6.114E-05  nbox=  5
     iter. #   314  RMS(g-h-1)= 6.184E-05  nbox=  6
     iter. #   315  RMS(g-h-1)= 6.070E-05  nbox=  7
     iter. #   316  RMS(g-h-1)= 6.074E-05  nbox=  8
     iter. #   317  RMS(g-h-1)= 6.034E-05  nbox=  9
     iter. #   318  RMS(g-h-1)= 6.009E-05  nbox= 10
     iter. #   319  RMS(g-h-1)= 5.970E-05  nbox= 11
     iter. #   320  RMS(g-h-1)= 6.001E-05  nbox= 12
     iter. #   321  RMS(g-h-1)= 5.920E-05  nbox= 13
     iter. #   322  RMS(g-h-1)= 5.892E-05  nbox= 14
     iter. #   323  RMS(g-h-1)= 5.852E-05  nbox= 15
     iter. #   324  RMS(g-h-1)= 5.812E-05  nbox= 16
     iter. #   325  RMS(g-h-1)= 5.855E-05  nbox= 17
     iter. #   326  RMS(g-h-1)= 5.891E-05  nbox=  2
     iter. #   327  RMS(g-h-1)= 5.772E-05  nbox=  3
     iter. #   328  RMS(g-h-1)= 5.740E-05  nbox=  4
     iter. #   329  RMS(g-h-1)= 5.714E-05  nbox=  5
     iter. #   330  RMS(g-h-1)= 5.805E-05  nbox=  6
     iter. #   331  RMS(g-h-1)= 5.679E-05  nbox=  7
     iter. #   332  RMS(g-h-1)= 5.687E-05  nbox=  8
     iter. #   333  RMS(g-h-1)= 5.653E-05  nbox=  9
     iter. #   334  RMS(g-h-1)= 5.637E-05  nbox= 10
     iter. #   335  RMS(g-h-1)= 5.610E-05  nbox= 11
     iter. #   336  RMS(g-h-1)= 5.607E-05  nbox= 12
     iter. #   337  RMS(g-h-1)= 5.573E-05  nbox= 13
     iter. #   338  RMS(g-h-1)= 5.541E-05  nbox= 14
     iter. #   339  RMS(g-h-1)= 5.508E-05  nbox= 15
     iter. #   340  RMS(g-h-1)= 5.475E-05  nbox= 16
     iter. #   341  RMS(g-h-1)= 5.464E-05  nbox= 17
     iter. #   342  RMS(g-h-1)= 5.454E-05  nbox=  2
     iter. #   343  RMS(g-h-1)= 5.424E-05  nbox=  3
     iter. #   344  RMS(g-h-1)= 5.390E-05  nbox=  4
     iter. #   345  RMS(g-h-1)= 5.357E-05  nbox=  5
     iter. #   346  RMS(g-h-1)= 5.326E-05  nbox=  6
     iter. #   347  RMS(g-h-1)= 5.306E-05  nbox=  7
     iter. #   348  RMS(g-h-1)= 5.289E-05  nbox=  8
     iter. #   349  RMS(g-h-1)= 5.258E-05  nbox=  9
     iter. #   350  RMS(g-h-1)= 5.232E-05  nbox= 10
     iter. #   351  RMS(g-h-1)= 5.205E-05  nbox= 11
     iter. #   352  RMS(g-h-1)= 5.184E-05  nbox= 12
     iter. #   353  RMS(g-h-1)= 5.167E-05  nbox= 13
     iter. #   354  RMS(g-h-1)= 5.150E-05  nbox= 14
     iter. #   355  RMS(g-h-1)= 5.116E-05  nbox= 15
     iter. #   356  RMS(g-h-1)= 5.076E-05  nbox= 16
     iter. #   357  RMS(g-h-1)= 5.041E-05  nbox= 17
     iter. #   358  RMS(g-h-1)= 5.033E-05  nbox=  2
     iter. #   359  RMS(g-h-1)= 4.995E-05  nbox=  3
     iter. #   360  RMS(g-h-1)= 4.960E-05  nbox=  4
     iter. #   361  RMS(g-h-1)= 4.929E-05  nbox=  5
     iter. #   362  RMS(g-h-1)= 4.917E-05  nbox=  6
     iter. #   363  RMS(g-h-1)= 4.887E-05  nbox=  7
     iter. #   364  RMS(g-h-1)= 4.858E-05  nbox=  8
     iter. #   365  RMS(g-h-1)= 4.828E-05  nbox=  9
     iter. #   366  RMS(g-h-1)= 4.820E-05  nbox= 10
     iter. #   367  RMS(g-h-1)= 4.779E-05  nbox= 11
     iter. #   368  RMS(g-h-1)= 4.789E-05  nbox= 12
     iter. #   369  RMS(g-h-1)= 4.747E-05  nbox= 13
     iter. #   370  RMS(g-h-1)= 4.729E-05  nbox= 14
     iter. #   371  RMS(g-h-1)= 4.711E-05  nbox= 15
     iter. #   372  RMS(g-h-1)= 4.690E-05  nbox= 16
     iter. #   373  RMS(g-h-1)= 4.686E-05  nbox= 17
     iter. #   374  RMS(g-h-1)= 4.682E-05  nbox=  2
     iter. #   375  RMS(g-h-1)= 4.665E-05  nbox=  3
     iter. #   376  RMS(g-h-1)= 4.652E-05  nbox=  4
     iter. #   377  RMS(g-h-1)= 4.642E-05  nbox=  5
     iter. #   378  RMS(g-h-1)= 4.632E-05  nbox=  6
     iter. #   379  RMS(g-h-1)= 4.622E-05  nbox=  7
     iter. #   380  RMS(g-h-1)= 4.613E-05  nbox=  8
     iter. #   381  RMS(g-h-1)= 4.606E-05  nbox=  9
     iter. #   382  RMS(g-h-1)= 4.597E-05  nbox= 10
     iter. #   383  RMS(g-h-1)= 4.587E-05  nbox= 11
     iter. #   384  RMS(g-h-1)= 4.572E-05  nbox= 12
     iter. #   385  RMS(g-h-1)= 4.604E-05  nbox= 13
     iter. #   386  RMS(g-h-1)= 4.549E-05  nbox= 14
     iter. #   387  RMS(g-h-1)= 4.551E-05  nbox= 15
     iter. #   388  RMS(g-h-1)= 4.533E-05  nbox= 16
     iter. #   389  RMS(g-h-1)= 4.520E-05  nbox= 17
     iter. #   390  RMS(g-h-1)= 4.516E-05  nbox=  2
     iter. #   391  RMS(g-h-1)= 4.504E-05  nbox=  3
     iter. #   392  RMS(g-h-1)= 4.491E-05  nbox=  4
     iter. #   393  RMS(g-h-1)= 4.479E-05  nbox=  5
     iter. #   394  RMS(g-h-1)= 4.472E-05  nbox=  6
     iter. #   395  RMS(g-h-1)= 4.466E-05  nbox=  7
     iter. #   396  RMS(g-h-1)= 4.457E-05  nbox=  8
     iter. #   397  RMS(g-h-1)= 4.447E-05  nbox=  9
     iter. #   398  RMS(g-h-1)= 4.437E-05  nbox= 10
     iter. #   399  RMS(g-h-1)= 4.429E-05  nbox= 11
     iter. #   400  RMS(g-h-1)= 4.418E-05  nbox= 12
     iter. #   401  RMS(g-h-1)= 4.408E-05  nbox= 13
     iter. #   402  RMS(g-h-1)= 4.402E-05  nbox= 14
     iter. #   403  RMS(g-h-1)= 4.390E-05  nbox= 15
     iter. #   404  RMS(g-h-1)= 4.377E-05  nbox= 16
     iter. #   405  RMS(g-h-1)= 4.366E-05  nbox= 17
     iter. #   406  RMS(g-h-1)= 4.363E-05  nbox=  2
     iter. #   407  RMS(g-h-1)= 4.351E-05  nbox=  3
     iter. #   408  RMS(g-h-1)= 4.339E-05  nbox=  4
     iter. #   409  RMS(g-h-1)= 4.331E-05  nbox=  5
     iter. #   410  RMS(g-h-1)= 4.324E-05  nbox=  6
     iter. #   411  RMS(g-h-1)= 4.320E-05  nbox=  7
     iter. #   412  RMS(g-h-1)= 4.313E-05  nbox=  8
     iter. #   413  RMS(g-h-1)= 4.305E-05  nbox=  9
     iter. #   414  RMS(g-h-1)= 4.298E-05  nbox= 10
     iter. #   415  RMS(g-h-1)= 4.291E-05  nbox= 11
     iter. #   416  RMS(g-h-1)= 4.283E-05  nbox= 12
     iter. #   417  RMS(g-h-1)= 4.274E-05  nbox= 13
     iter. #   418  RMS(g-h-1)= 4.268E-05  nbox= 14
     iter. #   419  RMS(g-h-1)= 4.260E-05  nbox= 15
     iter. #   420  RMS(g-h-1)= 4.251E-05  nbox= 16
     iter. #   421  RMS(g-h-1)= 4.241E-05  nbox= 17
     iter. #   422  RMS(g-h-1)= 4.241E-05  nbox=  2
     iter. #   423  RMS(g-h-1)= 4.232E-05  nbox=  3
     iter. #   424  RMS(g-h-1)= 4.225E-05  nbox=  4
     iter. #   425  RMS(g-h-1)= 4.218E-05  nbox=  5
     iter. #   426  RMS(g-h-1)= 4.213E-05  nbox=  6
     iter. #   427  RMS(g-h-1)= 4.209E-05  nbox=  7
     iter. #   428  RMS(g-h-1)= 4.202E-05  nbox=  8
     iter. #   429  RMS(g-h-1)= 4.194E-05  nbox=  9
     iter. #   430  RMS(g-h-1)= 4.191E-05  nbox= 10
     iter. #   431  RMS(g-h-1)= 4.179E-05  nbox= 11
     iter. #   432  RMS(g-h-1)= 4.172E-05  nbox= 12
     iter. #   433  RMS(g-h-1)= 4.162E-05  nbox= 13
     iter. #   434  RMS(g-h-1)= 4.153E-05  nbox= 14
     iter. #   435  RMS(g-h-1)= 4.148E-05  nbox= 15
     iter. #   436  RMS(g-h-1)= 4.136E-05  nbox= 16
     iter. #   437  RMS(g-h-1)= 4.135E-05  nbox= 17
     iter. #   438  RMS(g-h-1)= 4.132E-05  nbox=  2
     iter. #   439  RMS(g-h-1)= 4.122E-05  nbox=  3
     iter. #   440  RMS(g-h-1)= 4.112E-05  nbox=  4
     iter. #   441  RMS(g-h-1)= 4.104E-05  nbox=  5
     iter. #   442  RMS(g-h-1)= 4.095E-05  nbox=  6
     iter. #   443  RMS(g-h-1)= 4.087E-05  nbox=  7
     iter. #   444  RMS(g-h-1)= 4.082E-05  nbox=  8
     iter. #   445  RMS(g-h-1)= 4.073E-05  nbox=  9
     iter. #   446  RMS(g-h-1)= 4.063E-05  nbox= 10
     iter. #   447  RMS(g-h-1)= 4.050E-05  nbox= 11
     iter. #   448  RMS(g-h-1)= 4.045E-05  nbox= 12
     iter. #   449  RMS(g-h-1)= 4.030E-05  nbox= 13
     iter. #   450  RMS(g-h-1)= 4.020E-05  nbox= 14
     iter. #   451  RMS(g-h-1)= 4.003E-05  nbox= 15
     iter. #   452  RMS(g-h-1)= 3.987E-05  nbox= 16
     iter. #   453  RMS(g-h-1)= 3.970E-05  nbox= 17
     iter. #   454  RMS(g-h-1)= 3.965E-05  nbox=  2
     iter. #   455  RMS(g-h-1)= 3.949E-05  nbox=  3
     iter. #   456  RMS(g-h-1)= 3.931E-05  nbox=  4
     iter. #   457  RMS(g-h-1)= 3.913E-05  nbox=  5
     iter. #   458  RMS(g-h-1)= 3.901E-05  nbox=  6
     iter. #   459  RMS(g-h-1)= 3.890E-05  nbox=  7
     iter. #   460  RMS(g-h-1)= 3.876E-05  nbox=  8
     iter. #   461  RMS(g-h-1)= 3.861E-05  nbox=  9
     iter. #   462  RMS(g-h-1)= 3.848E-05  nbox= 10
     iter. #   463  RMS(g-h-1)= 3.834E-05  nbox= 11
     iter. #   464  RMS(g-h-1)= 3.820E-05  nbox= 12
     iter. #   465  RMS(g-h-1)= 3.813E-05  nbox= 13
     iter. #   466  RMS(g-h-1)= 3.802E-05  nbox= 14
     iter. #   467  RMS(g-h-1)= 3.791E-05  nbox= 15
     iter. #   468  RMS(g-h-1)= 3.777E-05  nbox= 16
     iter. #   469  RMS(g-h-1)= 3.761E-05  nbox= 17
     iter. #   470  RMS(g-h-1)= 3.759E-05  nbox=  2
     iter. #   471  RMS(g-h-1)= 3.743E-05  nbox=  3
     iter. #   472  RMS(g-h-1)= 3.726E-05  nbox=  4
     iter. #   473  RMS(g-h-1)= 3.713E-05  nbox=  5
     iter. #   474  RMS(g-h-1)= 3.699E-05  nbox=  6
     iter. #   475  RMS(g-h-1)= 3.690E-05  nbox=  7
     iter. #   476  RMS(g-h-1)= 3.678E-05  nbox=  8
     iter. #   477  RMS(g-h-1)= 3.664E-05  nbox=  9
     iter. #   478  RMS(g-h-1)= 3.651E-05  nbox= 10
     iter. #   479  RMS(g-h-1)= 3.638E-05  nbox= 11
     iter. #   480  RMS(g-h-1)= 3.627E-05  nbox= 12
     iter. #   481  RMS(g-h-1)= 3.619E-05  nbox= 13
     iter. #   482  RMS(g-h-1)= 3.612E-05  nbox= 14
     iter. #   483  RMS(g-h-1)= 3.601E-05  nbox= 15
     iter. #   484  RMS(g-h-1)= 3.592E-05  nbox= 16
     iter. #   485  RMS(g-h-1)= 3.579E-05  nbox= 17
     iter. #   486  RMS(g-h-1)= 3.578E-05  nbox=  2
     iter. #   487  RMS(g-h-1)= 3.566E-05  nbox=  3
     iter. #   488  RMS(g-h-1)= 3.554E-05  nbox=  4
     iter. #   489  RMS(g-h-1)= 3.543E-05  nbox=  5
     iter. #   490  RMS(g-h-1)= 3.531E-05  nbox=  6
     iter. #   491  RMS(g-h-1)= 3.523E-05  nbox=  7
     iter. #   492  RMS(g-h-1)= 3.512E-05  nbox=  8
     iter. #   493  RMS(g-h-1)= 3.499E-05  nbox=  9
     iter. #   494  RMS(g-h-1)= 3.485E-05  nbox= 10
     iter. #   495  RMS(g-h-1)= 3.474E-05  nbox= 11
     iter. #   496  RMS(g-h-1)= 3.462E-05  nbox= 12
     iter. #   497  RMS(g-h-1)= 3.455E-05  nbox= 13
     iter. #   498  RMS(g-h-1)= 3.443E-05  nbox= 14
     iter. #   499  RMS(g-h-1)= 3.440E-05  nbox= 15
     iter. #   500  RMS(g-h-1)= 3.431E-05  nbox= 16
     iter. #   501  RMS(g-h-1)= 3.421E-05  nbox= 17
     iter. #   502  RMS(g-h-1)= 3.419E-05  nbox=  2
     iter. #   503  RMS(g-h-1)= 3.410E-05  nbox=  3
     iter. #   504  RMS(g-h-1)= 3.400E-05  nbox=  4
     iter. #   505  RMS(g-h-1)= 3.392E-05  nbox=  5
     iter. #   506  RMS(g-h-1)= 3.381E-05  nbox=  6
     iter. #   507  RMS(g-h-1)= 3.377E-05  nbox=  7
     iter. #   508  RMS(g-h-1)= 3.369E-05  nbox=  8
     iter. #   509  RMS(g-h-1)= 3.361E-05  nbox=  9
     iter. #   510  RMS(g-h-1)= 3.354E-05  nbox= 10
     iter. #   511  RMS(g-h-1)= 3.347E-05  nbox= 11
     iter. #   512  RMS(g-h-1)= 3.341E-05  nbox= 12
     iter. #   513  RMS(g-h-1)= 3.336E-05  nbox= 13
     iter. #   514  RMS(g-h-1)= 3.332E-05  nbox= 14
     iter. #   515  RMS(g-h-1)= 3.328E-05  nbox= 15
     iter. #   516  RMS(g-h-1)= 3.323E-05  nbox= 16
     iter. #   517  RMS(g-h-1)= 3.318E-05  nbox= 17
     iter. #   518  RMS(g-h-1)= 3.317E-05  nbox=  2
     iter. #   519  RMS(g-h-1)= 3.311E-05  nbox=  3
     iter. #   520  RMS(g-h-1)= 3.304E-05  nbox=  4
     iter. #   521  RMS(g-h-1)= 3.299E-05  nbox=  5
     iter. #   522  RMS(g-h-1)= 3.292E-05  nbox=  6
     iter. #   523  RMS(g-h-1)= 3.285E-05  nbox=  7
     iter. #   524  RMS(g-h-1)= 3.281E-05  nbox=  8
     iter. #   525  RMS(g-h-1)= 3.274E-05  nbox=  9
     iter. #   526  RMS(g-h-1)= 3.267E-05  nbox= 10
     iter. #   527  RMS(g-h-1)= 3.260E-05  nbox= 11
     iter. #   528  RMS(g-h-1)= 3.252E-05  nbox= 12
     iter. #   529  RMS(g-h-1)= 3.245E-05  nbox= 13
     iter. #   530  RMS(g-h-1)= 3.236E-05  nbox= 14
     iter. #   531  RMS(g-h-1)= 3.229E-05  nbox= 15
     iter. #   532  RMS(g-h-1)= 3.222E-05  nbox= 16
     iter. #   533  RMS(g-h-1)= 3.211E-05  nbox= 17
     iter. #   534  RMS(g-h-1)= 3.210E-05  nbox=  2
     iter. #   535  RMS(g-h-1)= 3.198E-05  nbox=  3
     iter. #   536  RMS(g-h-1)= 3.185E-05  nbox=  4
     iter. #   537  RMS(g-h-1)= 3.174E-05  nbox=  5
     iter. #   538  RMS(g-h-1)= 3.161E-05  nbox=  6
     iter. #   539  RMS(g-h-1)= 3.153E-05  nbox=  7
     iter. #   540  RMS(g-h-1)= 3.140E-05  nbox=  8
     iter. #   541  RMS(g-h-1)= 3.124E-05  nbox=  9
     iter. #   542  RMS(g-h-1)= 3.106E-05  nbox= 10
     iter. #   543  RMS(g-h-1)= 3.087E-05  nbox= 11
     iter. #   544  RMS(g-h-1)= 3.068E-05  nbox= 12
     iter. #   545  RMS(g-h-1)= 3.051E-05  nbox= 13
     iter. #   546  RMS(g-h-1)= 3.041E-05  nbox= 14
     iter. #   547  RMS(g-h-1)= 3.024E-05  nbox= 15
     iter. #   548  RMS(g-h-1)= 3.007E-05  nbox= 16
     iter. #   549  RMS(g-h-1)= 2.992E-05  nbox= 17
     iter. #   550  RMS(g-h-1)= 2.989E-05  nbox=  2
     iter. #   551  RMS(g-h-1)= 2.974E-05  nbox=  3
     iter. #   552  RMS(g-h-1)= 2.959E-05  nbox=  4
     iter. #   553  RMS(g-h-1)= 2.944E-05  nbox=  5
     iter. #   554  RMS(g-h-1)= 2.931E-05  nbox=  6
     iter. #   555  RMS(g-h-1)= 2.919E-05  nbox=  7
     iter. #   556  RMS(g-h-1)= 2.902E-05  nbox=  8
     iter. #   557  RMS(g-h-1)= 2.886E-05  nbox=  9
     iter. #   558  RMS(g-h-1)= 2.863E-05  nbox= 10
     iter. #   559  RMS(g-h-1)= 2.843E-05  nbox= 11
     iter. #   560  RMS(g-h-1)= 2.821E-05  nbox= 12
     iter. #   561  RMS(g-h-1)= 2.803E-05  nbox= 13
     iter. #   562  RMS(g-h-1)= 2.797E-05  nbox= 14
     iter. #   563  RMS(g-h-1)= 2.779E-05  nbox= 15
     iter. #   564  RMS(g-h-1)= 2.765E-05  nbox= 16
     iter. #   565  RMS(g-h-1)= 2.753E-05  nbox= 17
     iter. #   566  RMS(g-h-1)= 2.752E-05  nbox=  2
     iter. #   567  RMS(g-h-1)= 2.739E-05  nbox=  3
     iter. #   568  RMS(g-h-1)= 2.730E-05  nbox=  4
     iter. #   569  RMS(g-h-1)= 2.721E-05  nbox=  5
     iter. #   570  RMS(g-h-1)= 2.713E-05  nbox=  6
     iter. #   571  RMS(g-h-1)= 2.707E-05  nbox=  7
     iter. #   572  RMS(g-h-1)= 2.701E-05  nbox=  8
     iter. #   573  RMS(g-h-1)= 2.693E-05  nbox=  9
     iter. #   574  RMS(g-h-1)= 2.684E-05  nbox= 10
     iter. #   575  RMS(g-h-1)= 2.676E-05  nbox= 11
     iter. #   576  RMS(g-h-1)= 2.668E-05  nbox= 12
     iter. #   577  RMS(g-h-1)= 2.661E-05  nbox= 13
     iter. #   578  RMS(g-h-1)= 2.653E-05  nbox= 14
     iter. #   579  RMS(g-h-1)= 2.649E-05  nbox= 15
     iter. #   580  RMS(g-h-1)= 2.643E-05  nbox= 16
     iter. #   581  RMS(g-h-1)= 2.635E-05  nbox= 17
     iter. #   582  RMS(g-h-1)= 2.634E-05  nbox=  2
     iter. #   583  RMS(g-h-1)= 2.626E-05  nbox=  3
     iter. #   584  RMS(g-h-1)= 2.619E-05  nbox=  4
     iter. #   585  RMS(g-h-1)= 2.613E-05  nbox=  5
     iter. #   586  RMS(g-h-1)= 2.607E-05  nbox=  6
     iter. #   587  RMS(g-h-1)= 2.602E-05  nbox=  7
     iter. #   588  RMS(g-h-1)= 2.599E-05  nbox=  8
     iter. #   589  RMS(g-h-1)= 2.595E-05  nbox=  9
     iter. #   590  RMS(g-h-1)= 2.589E-05  nbox= 10
     iter. #   591  RMS(g-h-1)= 2.584E-05  nbox= 11
     iter. #   592  RMS(g-h-1)= 2.579E-05  nbox= 12
     iter. #   593  RMS(g-h-1)= 2.572E-05  nbox= 13
     iter. #   594  RMS(g-h-1)= 2.573E-05  nbox= 14
     iter. #   595  RMS(g-h-1)= 2.565E-05  nbox= 15
     iter. #   596  RMS(g-h-1)= 2.559E-05  nbox= 16
     iter. #   597  RMS(g-h-1)= 2.554E-05  nbox= 17
     iter. #   598  RMS(g-h-1)= 2.553E-05  nbox=  2
     iter. #   599  RMS(g-h-1)= 2.547E-05  nbox=  3
     iter. #   600  RMS(g-h-1)= 2.543E-05  nbox=  4
     iter. #   601  RMS(g-h-1)= 2.538E-05  nbox=  5
     iter. #   602  RMS(g-h-1)= 2.538E-05  nbox=  6
     iter. #   603  RMS(g-h-1)= 2.532E-05  nbox=  7
     iter. #   604  RMS(g-h-1)= 2.529E-05  nbox=  8
     iter. #   605  RMS(g-h-1)= 2.524E-05  nbox=  9
     iter. #   606  RMS(g-h-1)= 2.520E-05  nbox= 10
     iter. #   607  RMS(g-h-1)= 2.515E-05  nbox= 11
     iter. #   608  RMS(g-h-1)= 2.510E-05  nbox= 12
     iter. #   609  RMS(g-h-1)= 2.510E-05  nbox= 13
     iter. #   610  RMS(g-h-1)= 2.503E-05  nbox= 14
     iter. #   611  RMS(g-h-1)= 2.498E-05  nbox= 15
     iter. #   612  RMS(g-h-1)= 2.493E-05  nbox= 16
     iter. #   613  RMS(g-h-1)= 2.488E-05  nbox= 17
     iter. #   614  RMS(g-h-1)= 2.487E-05  nbox=  2
     iter. #   615  RMS(g-h-1)= 2.481E-05  nbox=  3
     iter. #   616  RMS(g-h-1)= 2.476E-05  nbox=  4
     iter. #   617  RMS(g-h-1)= 2.470E-05  nbox=  5
     iter. #   618  RMS(g-h-1)= 2.464E-05  nbox=  6
     iter. #   619  RMS(g-h-1)= 2.459E-05  nbox=  7
     iter. #   620  RMS(g-h-1)= 2.454E-05  nbox=  8
     iter. #   621  RMS(g-h-1)= 2.450E-05  nbox=  9
     iter. #   622  RMS(g-h-1)= 2.444E-05  nbox= 10
     iter. #   623  RMS(g-h-1)= 2.438E-05  nbox= 11
     iter. #   624  RMS(g-h-1)= 2.432E-05  nbox= 12
     iter. #   625  RMS(g-h-1)= 2.428E-05  nbox= 13
     iter. #   626  RMS(g-h-1)= 2.422E-05  nbox= 14
     iter. #   627  RMS(g-h-1)= 2.417E-05  nbox= 15
     iter. #   628  RMS(g-h-1)= 2.413E-05  nbox= 16
     iter. #   629  RMS(g-h-1)= 2.409E-05  nbox= 17
     iter. #   630  RMS(g-h-1)= 2.407E-05  nbox=  2
     iter. #   631  RMS(g-h-1)= 2.401E-05  nbox=  3
     iter. #   632  RMS(g-h-1)= 2.394E-05  nbox=  4
     iter. #   633  RMS(g-h-1)= 2.388E-05  nbox=  5
     iter. #   634  RMS(g-h-1)= 2.379E-05  nbox=  6
     iter. #   635  RMS(g-h-1)= 2.371E-05  nbox=  7
     iter. #   636  RMS(g-h-1)= 2.364E-05  nbox=  8
     iter. #   637  RMS(g-h-1)= 2.360E-05  nbox=  9
     iter. #   638  RMS(g-h-1)= 2.353E-05  nbox= 10
     iter. #   639  RMS(g-h-1)= 2.346E-05  nbox= 11
     iter. #   640  RMS(g-h-1)= 2.339E-05  nbox= 12
     iter. #   641  RMS(g-h-1)= 2.332E-05  nbox= 13
     iter. #   642  RMS(g-h-1)= 2.328E-05  nbox= 14
     iter. #   643  RMS(g-h-1)= 2.320E-05  nbox= 15
     iter. #   644  RMS(g-h-1)= 2.312E-05  nbox= 16
     iter. #   645  RMS(g-h-1)= 2.304E-05  nbox= 17
     iter. #   646  RMS(g-h-1)= 2.302E-05  nbox=  2
     iter. #   647  RMS(g-h-1)= 2.294E-05  nbox=  3
     iter. #   648  RMS(g-h-1)= 2.286E-05  nbox=  4
     iter. #   649  RMS(g-h-1)= 2.279E-05  nbox=  5
     iter. #   650  RMS(g-h-1)= 2.271E-05  nbox=  6
     iter. #   651  RMS(g-h-1)= 2.264E-05  nbox=  7
     iter. #   652  RMS(g-h-1)= 2.258E-05  nbox=  8
     iter. #   653  RMS(g-h-1)= 2.252E-05  nbox=  9
     iter. #   654  RMS(g-h-1)= 2.243E-05  nbox= 10
     iter. #   655  RMS(g-h-1)= 2.234E-05  nbox= 11
     iter. #   656  RMS(g-h-1)= 2.228E-05  nbox= 12
     iter. #   657  RMS(g-h-1)= 2.223E-05  nbox= 13
     iter. #   658  RMS(g-h-1)= 2.215E-05  nbox= 14
     iter. #   659  RMS(g-h-1)= 2.208E-05  nbox= 15
     iter. #   660  RMS(g-h-1)= 2.200E-05  nbox= 16
     iter. #   661  RMS(g-h-1)= 2.194E-05  nbox= 17
     iter. #   662  RMS(g-h-1)= 2.192E-05  nbox=  2
     iter. #   663  RMS(g-h-1)= 2.185E-05  nbox=  3
     iter. #   664  RMS(g-h-1)= 2.178E-05  nbox=  4
     iter. #   665  RMS(g-h-1)= 2.172E-05  nbox=  5
     iter. #   666  RMS(g-h-1)= 2.165E-05  nbox=  6
     iter. #   667  RMS(g-h-1)= 2.159E-05  nbox=  7
     iter. #   668  RMS(g-h-1)= 2.154E-05  nbox=  8
     iter. #   669  RMS(g-h-1)= 2.149E-05  nbox=  9
     iter. #   670  RMS(g-h-1)= 2.143E-05  nbox= 10
     iter. #   671  RMS(g-h-1)= 2.134E-05  nbox= 11
     iter. #   672  RMS(g-h-1)= 2.127E-05  nbox= 12
     iter. #   673  RMS(g-h-1)= 2.118E-05  nbox= 13
     iter. #   674  RMS(g-h-1)= 2.110E-05  nbox= 14
     iter. #   675  RMS(g-h-1)= 2.102E-05  nbox= 15
     iter. #   676  RMS(g-h-1)= 2.098E-05  nbox= 16
     iter. #   677  RMS(g-h-1)= 2.089E-05  nbox= 17
     iter. #   678  RMS(g-h-1)= 2.087E-05  nbox=  2
     iter. #   679  RMS(g-h-1)= 2.076E-05  nbox=  3
     iter. #   680  RMS(g-h-1)= 2.065E-05  nbox=  4
     iter. #   681  RMS(g-h-1)= 2.054E-05  nbox=  5
     iter. #   682  RMS(g-h-1)= 2.040E-05  nbox=  6
     iter. #   683  RMS(g-h-1)= 2.033E-05  nbox=  7
     iter. #   684  RMS(g-h-1)= 2.019E-05  nbox=  8
     iter. #   685  RMS(g-h-1)= 2.006E-05  nbox=  9
     iter. #   686  RMS(g-h-1)= 1.988E-05  nbox= 10
     iter. #   687  RMS(g-h-1)= 1.970E-05  nbox= 11
     iter. #   688  RMS(g-h-1)= 1.951E-05  nbox= 12
     iter. #   689  RMS(g-h-1)= 1.935E-05  nbox= 13
     iter. #   690  RMS(g-h-1)= 1.923E-05  nbox= 14
     iter. #   691  RMS(g-h-1)= 1.911E-05  nbox= 15
     iter. #   692  RMS(g-h-1)= 1.895E-05  nbox= 16
     iter. #   693  RMS(g-h-1)= 1.879E-05  nbox= 17
     iter. #   694  RMS(g-h-1)= 1.878E-05  nbox=  2
     iter. #   695  RMS(g-h-1)= 1.862E-05  nbox=  3
     iter. #   696  RMS(g-h-1)= 1.849E-05  nbox=  4
     iter. #   697  RMS(g-h-1)= 1.840E-05  nbox=  5
     iter. #   698  RMS(g-h-1)= 1.825E-05  nbox=  6
     iter. #   699  RMS(g-h-1)= 1.827E-05  nbox=  7
     iter. #   700  RMS(g-h-1)= 1.811E-05  nbox=  8
     iter. #   701  RMS(g-h-1)= 1.801E-05  nbox=  9
     iter. #   702  RMS(g-h-1)= 1.791E-05  nbox= 10
     iter. #   703  RMS(g-h-1)= 1.778E-05  nbox= 11
     iter. #   704  RMS(g-h-1)= 1.768E-05  nbox= 12
     iter. #   705  RMS(g-h-1)= 1.759E-05  nbox= 13
     iter. #   706  RMS(g-h-1)= 1.750E-05  nbox= 14
     iter. #   707  RMS(g-h-1)= 1.745E-05  nbox= 15
     iter. #   708  RMS(g-h-1)= 1.736E-05  nbox= 16
     iter. #   709  RMS(g-h-1)= 1.726E-05  nbox= 17
     iter. #   710  RMS(g-h-1)= 1.724E-05  nbox=  2
     iter. #   711  RMS(g-h-1)= 1.713E-05  nbox=  3
     iter. #   712  RMS(g-h-1)= 1.703E-05  nbox=  4
     iter. #   713  RMS(g-h-1)= 1.696E-05  nbox=  5
     iter. #   714  RMS(g-h-1)= 1.686E-05  nbox=  6
     iter. #   715  RMS(g-h-1)= 1.683E-05  nbox=  7
     iter. #   716  RMS(g-h-1)= 1.674E-05  nbox=  8
     iter. #   717  RMS(g-h-1)= 1.665E-05  nbox=  9
     iter. #   718  RMS(g-h-1)= 1.655E-05  nbox= 10
     iter. #   719  RMS(g-h-1)= 1.646E-05  nbox= 11
     iter. #   720  RMS(g-h-1)= 1.635E-05  nbox= 12
     iter. #   721  RMS(g-h-1)= 1.629E-05  nbox= 13
     iter. #   722  RMS(g-h-1)= 1.622E-05  nbox= 14
     iter. #   723  RMS(g-h-1)= 1.612E-05  nbox= 15
     iter. #   724  RMS(g-h-1)= 1.602E-05  nbox= 16
     iter. #   725  RMS(g-h-1)= 1.592E-05  nbox= 17
     iter. #   726  RMS(g-h-1)= 1.589E-05  nbox=  2
     iter. #   727  RMS(g-h-1)= 1.580E-05  nbox=  3
     iter. #   728  RMS(g-h-1)= 1.568E-05  nbox=  4
     iter. #   729  RMS(g-h-1)= 1.563E-05  nbox=  5
     iter. #   730  RMS(g-h-1)= 1.553E-05  nbox=  6
     iter. #   731  RMS(g-h-1)= 1.549E-05  nbox=  7
     iter. #   732  RMS(g-h-1)= 1.538E-05  nbox=  8
     iter. #   733  RMS(g-h-1)= 1.529E-05  nbox=  9
     iter. #   734  RMS(g-h-1)= 1.518E-05  nbox= 10
     iter. #   735  RMS(g-h-1)= 1.509E-05  nbox= 11
     iter. #   736  RMS(g-h-1)= 1.495E-05  nbox= 12
     iter. #   737  RMS(g-h-1)= 1.484E-05  nbox= 13
     iter. #   738  RMS(g-h-1)= 1.480E-05  nbox= 14
     iter. #   739  RMS(g-h-1)= 1.466E-05  nbox= 15
     iter. #   740  RMS(g-h-1)= 1.454E-05  nbox= 16
     iter. #   741  RMS(g-h-1)= 1.440E-05  nbox= 17
     iter. #   742  RMS(g-h-1)= 1.437E-05  nbox=  2
     iter. #   743  RMS(g-h-1)= 1.422E-05  nbox=  3
     iter. #   744  RMS(g-h-1)= 1.407E-05  nbox=  4
     iter. #   745  RMS(g-h-1)= 1.396E-05  nbox=  5
     iter. #   746  RMS(g-h-1)= 1.388E-05  nbox=  6
     iter. #   747  RMS(g-h-1)= 1.373E-05  nbox=  7
     iter. #   748  RMS(g-h-1)= 1.357E-05  nbox=  8
     iter. #   749  RMS(g-h-1)= 1.341E-05  nbox=  9
     iter. #   750  RMS(g-h-1)= 1.328E-05  nbox= 10
     iter. #   751  RMS(g-h-1)= 1.315E-05  nbox= 11
     iter. #   752  RMS(g-h-1)= 1.302E-05  nbox= 12
     iter. #   753  RMS(g-h-1)= 1.295E-05  nbox= 13
     iter. #   754  RMS(g-h-1)= 1.286E-05  nbox= 14
     iter. #   755  RMS(g-h-1)= 1.275E-05  nbox= 15
     iter. #   756  RMS(g-h-1)= 1.264E-05  nbox= 16
     iter. #   757  RMS(g-h-1)= 1.253E-05  nbox= 17
     iter. #   758  RMS(g-h-1)= 1.250E-05  nbox=  2
     iter. #   759  RMS(g-h-1)= 1.239E-05  nbox=  3
     iter. #   760  RMS(g-h-1)= 1.228E-05  nbox=  4
     iter. #   761  RMS(g-h-1)= 1.220E-05  nbox=  5
     iter. #   762  RMS(g-h-1)= 1.215E-05  nbox=  6
     iter. #   763  RMS(g-h-1)= 1.207E-05  nbox=  7
     iter. #   764  RMS(g-h-1)= 1.199E-05  nbox=  8
     iter. #   765  RMS(g-h-1)= 1.191E-05  nbox=  9
     iter. #   766  RMS(g-h-1)= 1.183E-05  nbox= 10
     iter. #   767  RMS(g-h-1)= 1.176E-05  nbox= 11
     iter. #   768  RMS(g-h-1)= 1.167E-05  nbox= 12
     iter. #   769  RMS(g-h-1)= 1.161E-05  nbox= 13
     iter. #   770  RMS(g-h-1)= 1.157E-05  nbox= 14
     iter. #   771  RMS(g-h-1)= 1.150E-05  nbox= 15
     iter. #   772  RMS(g-h-1)= 1.143E-05  nbox= 16
     iter. #   773  RMS(g-h-1)= 1.137E-05  nbox= 17
     iter. #   774  RMS(g-h-1)= 1.135E-05  nbox=  2
     iter. #   775  RMS(g-h-1)= 1.127E-05  nbox=  3
     iter. #   776  RMS(g-h-1)= 1.119E-05  nbox=  4
     iter. #   777  RMS(g-h-1)= 1.112E-05  nbox=  5
     iter. #   778  RMS(g-h-1)= 1.107E-05  nbox=  6
     iter. #   779  RMS(g-h-1)= 1.103E-05  nbox=  7
     iter. #   780  RMS(g-h-1)= 1.098E-05  nbox=  8
     iter. #   781  RMS(g-h-1)= 1.092E-05  nbox=  9
     iter. #   782  RMS(g-h-1)= 1.086E-05  nbox= 10
     iter. #   783  RMS(g-h-1)= 1.081E-05  nbox= 11
     iter. #   784  RMS(g-h-1)= 1.075E-05  nbox= 12
     iter. #   785  RMS(g-h-1)= 1.070E-05  nbox= 13
     iter. #   786  RMS(g-h-1)= 1.065E-05  nbox= 14
     iter. #   787  RMS(g-h-1)= 1.063E-05  nbox= 15
     iter. #   788  RMS(g-h-1)= 1.058E-05  nbox= 16
     iter. #   789  RMS(g-h-1)= 1.053E-05  nbox= 17
     iter. #   790  RMS(g-h-1)= 1.052E-05  nbox=  2
     iter. #   791  RMS(g-h-1)= 1.047E-05  nbox=  3
     iter. #   792  RMS(g-h-1)= 1.043E-05  nbox=  4
     iter. #   793  RMS(g-h-1)= 1.039E-05  nbox=  5
     iter. #   794  RMS(g-h-1)= 1.035E-05  nbox=  6
     iter. #   795  RMS(g-h-1)= 1.034E-05  nbox=  7
     iter. #   796  RMS(g-h-1)= 1.030E-05  nbox=  8
     iter. #   797  RMS(g-h-1)= 1.026E-05  nbox=  9
     iter. #   798  RMS(g-h-1)= 1.022E-05  nbox= 10
     iter. #   799  RMS(g-h-1)= 1.021E-05  nbox= 11
     iter. #   800  RMS(g-h-1)= 1.016E-05  nbox= 12
     iter. #   801  RMS(g-h-1)= 1.019E-05  nbox= 13
     iter. #   802  RMS(g-h-1)= 1.008E-05  nbox= 14
     iter. #   803  RMS(g-h-1)= 1.005E-05  nbox= 15
     iter. #   804  RMS(g-h-1)= 1.000E-05  nbox= 16
     iter. #   805  RMS(g-h-1)= 9.972E-06  nbox= 17
     iter. #   806  RMS(g-h-1)= 9.955E-06  nbox=  2
     iter. #   807  RMS(g-h-1)= 9.904E-06  nbox=  3
     iter. #   808  RMS(g-h-1)= 9.865E-06  nbox=  4
     iter. #   809  RMS(g-h-1)= 9.820E-06  nbox=  5
     iter. #   810  RMS(g-h-1)= 9.775E-06  nbox=  6
     iter. #   811  RMS(g-h-1)= 9.743E-06  nbox=  7
     iter. #   812  RMS(g-h-1)= 9.714E-06  nbox=  8
     iter. #   813  RMS(g-h-1)= 9.674E-06  nbox=  9
     iter. #   814  RMS(g-h-1)= 9.635E-06  nbox= 10
     iter. #   815  RMS(g-h-1)= 9.594E-06  nbox= 11
     iter. #   816  RMS(g-h-1)= 9.554E-06  nbox= 12
     iter. #   817  RMS(g-h-1)= 9.505E-06  nbox= 13
     iter. #   818  RMS(g-h-1)= 9.473E-06  nbox= 14
     iter. #   819  RMS(g-h-1)= 9.447E-06  nbox= 15
     iter. #   820  RMS(g-h-1)= 9.395E-06  nbox= 16
     iter. #   821  RMS(g-h-1)= 9.358E-06  nbox= 17
     iter. #   822  RMS(g-h-1)= 9.350E-06  nbox=  2
     iter. #   823  RMS(g-h-1)= 9.302E-06  nbox=  3
     iter. #   824  RMS(g-h-1)= 9.267E-06  nbox=  4
     iter. #   825  RMS(g-h-1)= 9.232E-06  nbox=  5
     iter. #   826  RMS(g-h-1)= 9.195E-06  nbox=  6
     iter. #   827  RMS(g-h-1)= 9.177E-06  nbox=  7
     iter. #   828  RMS(g-h-1)= 9.146E-06  nbox=  8
     iter. #   829  RMS(g-h-1)= 9.104E-06  nbox=  9
     iter. #   830  RMS(g-h-1)= 9.057E-06  nbox= 10
     iter. #   831  RMS(g-h-1)= 9.013E-06  nbox= 11
     iter. #   832  RMS(g-h-1)= 8.958E-06  nbox= 12
     iter. #   833  RMS(g-h-1)= 8.906E-06  nbox= 13
     iter. #   834  RMS(g-h-1)= 8.852E-06  nbox= 14
     iter. #   835  RMS(g-h-1)= 8.815E-06  nbox= 15
     iter. #   836  RMS(g-h-1)= 8.769E-06  nbox= 16
     iter. #   837  RMS(g-h-1)= 8.714E-06  nbox= 17
     iter. #   838  RMS(g-h-1)= 8.699E-06  nbox=  2
     iter. #   839  RMS(g-h-1)= 8.648E-06  nbox=  3
     iter. #   840  RMS(g-h-1)= 8.602E-06  nbox=  4
     iter. #   841  RMS(g-h-1)= 8.558E-06  nbox=  5
     iter. #   842  RMS(g-h-1)= 8.525E-06  nbox=  6
     iter. #   843  RMS(g-h-1)= 8.504E-06  nbox=  7
     iter. #   844  RMS(g-h-1)= 8.457E-06  nbox=  8
     iter. #   845  RMS(g-h-1)= 8.418E-06  nbox=  9
     iter. #   846  RMS(g-h-1)= 8.367E-06  nbox= 10
     iter. #   847  RMS(g-h-1)= 8.322E-06  nbox= 11
     iter. #   848  RMS(g-h-1)= 8.283E-06  nbox= 12
     iter. #   849  RMS(g-h-1)= 8.233E-06  nbox= 13
     iter. #   850  RMS(g-h-1)= 8.197E-06  nbox= 14
     iter. #   851  RMS(g-h-1)= 8.173E-06  nbox= 15
     iter. #   852  RMS(g-h-1)= 8.118E-06  nbox= 16
     iter. #   853  RMS(g-h-1)= 8.071E-06  nbox= 17
     iter. #   854  RMS(g-h-1)= 8.059E-06  nbox=  2
     iter. #   855  RMS(g-h-1)= 8.001E-06  nbox=  3
     iter. #   856  RMS(g-h-1)= 7.958E-06  nbox=  4
     iter. #   857  RMS(g-h-1)= 7.907E-06  nbox=  5
     iter. #   858  RMS(g-h-1)= 7.872E-06  nbox=  6
     iter. #   859  RMS(g-h-1)= 7.851E-06  nbox=  7
     iter. #   860  RMS(g-h-1)= 7.814E-06  nbox=  8
     iter. #   861  RMS(g-h-1)= 7.783E-06  nbox=  9
     iter. #   862  RMS(g-h-1)= 7.753E-06  nbox= 10
     iter. #   863  RMS(g-h-1)= 7.726E-06  nbox= 11
     iter. #   864  RMS(g-h-1)= 7.699E-06  nbox= 12
     iter. #   865  RMS(g-h-1)= 7.668E-06  nbox= 13
     iter. #   866  RMS(g-h-1)= 7.645E-06  nbox= 14
     iter. #   867  RMS(g-h-1)= 7.629E-06  nbox= 15
     iter. #   868  RMS(g-h-1)= 7.605E-06  nbox= 16
     iter. #   869  RMS(g-h-1)= 7.575E-06  nbox= 17
     iter. #   870  RMS(g-h-1)= 7.572E-06  nbox=  2
     iter. #   871  RMS(g-h-1)= 7.537E-06  nbox=  3
     iter. #   872  RMS(g-h-1)= 7.507E-06  nbox=  4
     iter. #   873  RMS(g-h-1)= 7.479E-06  nbox=  5
     iter. #   874  RMS(g-h-1)= 7.445E-06  nbox=  6
     iter. #   875  RMS(g-h-1)= 7.431E-06  nbox=  7
     iter. #   876  RMS(g-h-1)= 7.408E-06  nbox=  8
     iter. #   877  RMS(g-h-1)= 7.385E-06  nbox=  9
     iter. #   878  RMS(g-h-1)= 7.357E-06  nbox= 10
     iter. #   879  RMS(g-h-1)= 7.335E-06  nbox= 11
     iter. #   880  RMS(g-h-1)= 7.311E-06  nbox= 12
     iter. #   881  RMS(g-h-1)= 7.292E-06  nbox= 13
     iter. #   882  RMS(g-h-1)= 7.275E-06  nbox= 14
     iter. #   883  RMS(g-h-1)= 7.263E-06  nbox= 15
     iter. #   884  RMS(g-h-1)= 7.248E-06  nbox= 16
     iter. #   885  RMS(g-h-1)= 7.231E-06  nbox= 17
     iter. #   886  RMS(g-h-1)= 7.226E-06  nbox=  2
     iter. #   887  RMS(g-h-1)= 7.207E-06  nbox=  3
     iter. #   888  RMS(g-h-1)= 7.188E-06  nbox=  4
     iter. #   889  RMS(g-h-1)= 7.167E-06  nbox=  5
     iter. #   890  RMS(g-h-1)= 7.149E-06  nbox=  6
     iter. #   891  RMS(g-h-1)= 7.132E-06  nbox=  7
     iter. #   892  RMS(g-h-1)= 7.122E-06  nbox=  8
     iter. #   893  RMS(g-h-1)= 7.108E-06  nbox=  9
     iter. #   894  RMS(g-h-1)= 7.088E-06  nbox= 10
     iter. #   895  RMS(g-h-1)= 7.070E-06  nbox= 11
     iter. #   896  RMS(g-h-1)= 7.060E-06  nbox= 12
     iter. #   897  RMS(g-h-1)= 7.034E-06  nbox= 13
     iter. #   898  RMS(g-h-1)= 7.039E-06  nbox= 14
     iter. #   899  RMS(g-h-1)= 7.011E-06  nbox= 15
     iter. #   900  RMS(g-h-1)= 6.996E-06  nbox= 16
     iter. #   901  RMS(g-h-1)= 6.978E-06  nbox= 17
     iter. #   902  RMS(g-h-1)= 6.974E-06  nbox=  2
     iter. #   903  RMS(g-h-1)= 6.957E-06  nbox=  3
     iter. #   904  RMS(g-h-1)= 6.942E-06  nbox=  4
     iter. #   905  RMS(g-h-1)= 6.929E-06  nbox=  5
     iter. #   906  RMS(g-h-1)= 6.914E-06  nbox=  6
     iter. #   907  RMS(g-h-1)= 6.906E-06  nbox=  7
     iter. #   908  RMS(g-h-1)= 6.892E-06  nbox=  8
     iter. #   909  RMS(g-h-1)= 6.877E-06  nbox=  9
     iter. #   910  RMS(g-h-1)= 6.860E-06  nbox= 10
[...]
     atom   19 type  1   force =    -0.00000533   -0.04966305   61.63714071
     atom   20 type  1   force =    -0.21234174   -0.12261926   65.56193258
     atom   21 type  1   force =     0.21234090   -0.12264202   65.56190431
     atom   22 type  1   force =     0.01436469   -0.00827258   62.69885849
     atom   23 type  1   force =    -0.00001652    0.24520555   65.56191071
     atom   24 type  1   force =    -0.01435175   -0.00828109   62.69889768
     atom   25 type  1   force =     0.04297071    0.02483168   61.63708446
     atom   26 type  1   force =    -0.04299021    0.02483382   61.63714665
     atom   27 type  1   force =     0.00001643    0.01659951   62.69887424
     atom   28 type  1   force =    -0.00000239   -0.00001333  203.69469247
     atom   29 type  1   force =    -0.60021974   -0.76042903  202.93640321
     atom   30 type  1   force =     0.60022254   -0.76043935  202.93636268
     atom   31 type  1   force =    -0.95864939   -0.13960572  202.93635654
     atom   32 type  1   force =     0.00001088   -0.00000356  203.49487056
     atom   33 type  1   force =     0.95865652   -0.13961543  202.93638605
     atom   34 type  1   force =    -0.35844092    0.90004313  202.93634842
     atom   35 type  1   force =     0.35842708    0.90004404  202.93640398
     atom   36 type  1   force =     0.00001783    0.00002740  204.43888833
     atom   37 type  2   force =     0.00002287    0.00001380   93.48035168
     atom   38 type  3   force =    -0.00003589   -0.00002352  164.15193622
     The local contribution  to forces
     atom    1 type  1   force =     0.00000322   -0.00003456  217.60742733
     atom    2 type  1   force =     0.02323820   -0.02500575  217.76107590
     atom    3 type  1   force =    -0.02324328   -0.02500410  217.76107167
     atom    4 type  1   force =    -0.01000584    0.03261301  217.76109244
     atom    5 type  1   force =    -0.00000115    0.00000219  217.72424330
     atom    6 type  1   force =     0.01000555    0.03261675  217.76109748
     atom    7 type  1   force =    -0.03324464   -0.00761440  217.76108217
     atom    8 type  1   force =     0.03324672   -0.00761134  217.76109316
     atom    9 type  1   force =    -0.00000432    0.00002846  217.84878096
     atom   10 type  1   force =     0.02273251    0.01314002   77.50409589
     atom   11 type  1   force =    -0.00000736   -0.16328564   77.20065693
     atom   12 type  1   force =    -0.02272410    0.01315997   77.50410346
     atom   13 type  1   force =    -0.14142757    0.08165653   77.20066745
     atom   14 type  1   force =     0.14144013    0.08167429   77.20065691
     atom   15 type  1   force =    -0.00001263    0.09675834   77.81419911
     atom   16 type  1   force =     0.00002322   -0.02627918   77.50406231
     atom   17 type  1   force =     0.08377848   -0.04841374   77.81413850
     atom   18 type  1   force =    -0.08380052   -0.04840982   77.81415086
     atom   19 type  1   force =     0.00000527    0.04508206  -61.66187192
     atom   20 type  1   force =     0.22617824    0.13060780  -65.56432715
     atom   21 type  1   force =    -0.22617743    0.13063052  -65.56429905
     atom   22 type  1   force =    -0.02217138    0.01277996  -62.72758370
     atom   23 type  1   force =     0.00001641   -0.26118240  -65.56430544
     atom   24 type  1   force =     0.02215848    0.01278841  -62.72762303
     atom   25 type  1   force =    -0.03900348   -0.02254141  -61.66181569
     atom   26 type  1   force =     0.03902284   -0.02254350  -61.66187793
     atom   27 type  1   force =    -0.00001640   -0.02561409  -62.72759949
     atom   28 type  1   force =     0.00000205    0.00001309 -203.72792133
     atom   29 type  1   force =     0.58225899    0.73094081 -203.01756891
     atom   30 type  1   force =    -0.58226145    0.73095111 -203.01752769
     atom   31 type  1   force =     0.92413171    0.13879542 -203.01752229
     atom   32 type  1   force =    -0.00001087    0.00000366 -203.51606447
     atom   33 type  1   force =    -0.92413905    0.13880472 -203.01755223
     atom   34 type  1   force =     0.34188394   -0.86974436 -203.01751354
     atom   35 type  1   force =    -0.34187037   -0.86974557 -203.01757015
     atom   36 type  1   force =    -0.00001750   -0.00002717 -204.47316107
     atom   37 type  2   force =    -0.00001980   -0.00001191  -94.33721241
     atom   38 type  3   force =     0.00002667    0.00001741 -161.44324825
     The core correction contribution to forces
     atom    1 type  1   force =    -0.00000001   -0.00000009    0.01937385
     atom    2 type  1   force =    -0.00021770    0.00005044    0.01940838
     atom    3 type  1   force =     0.00021769    0.00005043    0.01940838
     atom    4 type  1   force =    -0.00006511   -0.00021380    0.01940842
     atom    5 type  1   force =     0.00000000   -0.00000001    0.01895142
     atom    6 type  1   force =     0.00006510   -0.00021380    0.01940844
     atom    7 type  1   force =     0.00015259    0.00016334    0.01940841
     atom    8 type  1   force =    -0.00015260    0.00016335    0.01940841
     atom    9 type  1   force =     0.00000000    0.00000007    0.01979033
     atom   10 type  1   force =     0.00024425    0.00014107    0.00009932
     atom   11 type  1   force =    -0.00000001   -0.00064252   -0.00036302
     atom   12 type  1   force =    -0.00024424    0.00014111    0.00009932
     atom   13 type  1   force =    -0.00055649    0.00032129   -0.00036300
     atom   14 type  1   force =     0.00055651    0.00032131   -0.00036298
     atom   15 type  1   force =    -0.00000002    0.00027879    0.00066958
     atom   16 type  1   force =     0.00000004   -0.00028210    0.00009933
     atom   17 type  1   force =     0.00024143   -0.00013948    0.00066959
     atom   18 type  1   force =    -0.00024146   -0.00013947    0.00066959
     atom   19 type  1   force =     0.00000003   -0.00034044   -0.00017044
     atom   20 type  1   force =     0.00158330    0.00091413    0.00097597
     atom   21 type  1   force =    -0.00158330    0.00091418    0.00097600
     atom   22 type  1   force =     0.00008054   -0.00004651    0.00049090
     atom   23 type  1   force =     0.00000002   -0.00182825    0.00097599
     atom   24 type  1   force =    -0.00008056   -0.00004651    0.00049091
     atom   25 type  1   force =     0.00029488    0.00017021   -0.00017048
     atom   26 type  1   force =    -0.00029484    0.00017023   -0.00017048
     atom   27 type  1   force =    -0.00000002    0.00009299    0.00049088
     atom   28 type  1   force =    -0.00000001    0.00000002   -0.01965915
     atom   29 type  1   force =    -0.00086544   -0.00166860   -0.02008839
     atom   30 type  1   force =     0.00086546   -0.00166855   -0.02008837
     atom   31 type  1   force =    -0.00187778    0.00008484   -0.02008842
     atom   32 type  1   force =    -0.00000011   -0.00000005    0.02618526
     atom   33 type  1   force =     0.00187775    0.00008483   -0.02008841
     atom   34 type  1   force =    -0.00101230    0.00158376   -0.02008838
     atom   35 type  1   force =     0.00101233    0.00158374   -0.02008839
     atom   36 type  1   force =    -0.00000003   -0.00000004   -0.02030563
     atom   37 type  2   force =     0.00000008    0.00000006   -0.01743192
     atom   38 type  3   force =    -0.00000007   -0.00000005    0.02262570
     The Hubbard contrib.    to forces
     atom    1 type  1   force =     0.00000000    0.00000000    0.00000000
     atom    2 type  1   force =     0.00000000    0.00000000    0.00000000
     atom    3 type  1   force =     0.00000000    0.00000000    0.00000000
     atom    4 type  1   force =     0.00000000    0.00000000    0.00000000
     atom    5 type  1   force =     0.00000000    0.00000000    0.00000000
     atom    6 type  1   force =     0.00000000    0.00000000    0.00000000
     atom    7 type  1   force =     0.00000000    0.00000000    0.00000000
     atom    8 type  1   force =     0.00000000    0.00000000    0.00000000
     atom    9 type  1   force =     0.00000000    0.00000000    0.00000000
     atom   10 type  1   force =     0.00000000    0.00000000    0.00000000
     atom   11 type  1   force =     0.00000000    0.00000000    0.00000000
     atom   12 type  1   force =     0.00000000    0.00000000    0.00000000
     atom   13 type  1   force =     0.00000000    0.00000000    0.00000000
     atom   14 type  1   force =     0.00000000    0.00000000    0.00000000
     atom   15 type  1   force =     0.00000000    0.00000000    0.00000000
     atom   16 type  1   force =     0.00000000    0.00000000    0.00000000
     atom   17 type  1   force =     0.00000000    0.00000000    0.00000000
     atom   18 type  1   force =     0.00000000    0.00000000    0.00000000
     atom   19 type  1   force =     0.00000000    0.00000000    0.00000000
     atom   20 type  1   force =     0.00000000    0.00000000    0.00000000
     atom   21 type  1   force =     0.00000000    0.00000000    0.00000000
     atom   22 type  1   force =     0.00000000    0.00000000    0.00000000
     atom   23 type  1   force =     0.00000000    0.00000000    0.00000000
     atom   24 type  1   force =     0.00000000    0.00000000    0.00000000
     atom   25 type  1   force =     0.00000000    0.00000000    0.00000000
     atom   26 type  1   force =     0.00000000    0.00000000    0.00000000
     atom   27 type  1   force =     0.00000000    0.00000000    0.00000000
     atom   28 type  1   force =     0.00000000    0.00000000    0.00000000
     atom   29 type  1   force =     0.00000000    0.00000000    0.00000000
     atom   30 type  1   force =     0.00000000    0.00000000    0.00000000
     atom   31 type  1   force =     0.00000000    0.00000000    0.00000000
     atom   32 type  1   force =     0.00000000    0.00000000    0.00000000
     atom   33 type  1   force =     0.00000000    0.00000000    0.00000000
     atom   34 type  1   force =     0.00000000    0.00000000    0.00000000
     atom   35 type  1   force =     0.00000000    0.00000000    0.00000000
     atom   36 type  1   force =     0.00000000    0.00000000    0.00000000
     atom   37 type  2   force =     0.00000000    0.00000000    0.00000000
     atom   38 type  3   force =     0.00000000    0.00000000    0.00000000
     The SCF correction term to forces
     atom    1 type  1   force =     0.00000000    0.00000000    0.00000000
     atom    2 type  1   force =     0.00000000    0.00000000    0.00000000
     atom    3 type  1   force =     0.00000000    0.00000000    0.00000000
     atom    4 type  1   force =     0.00000000    0.00000000    0.00000000
     atom    5 type  1   force =     0.00000000    0.00000000    0.00000000
     atom    6 type  1   force =     0.00000000    0.00000000    0.00000000
     atom    7 type  1   force =     0.00000000    0.00000000    0.00000000
     atom    8 type  1   force =     0.00000000    0.00000000    0.00000000
     atom    9 type  1   force =     0.00000000    0.00000000    0.00000000
     atom   10 type  1   force =     0.00000051    0.00000030   -0.00000258
     atom   11 type  1   force =    -0.00000009    0.00000003   -0.00000260
     atom   12 type  1   force =    -0.00000036    0.00000022   -0.00000259
     atom   13 type  1   force =     0.00000001   -0.00000029   -0.00000263
     atom   14 type  1   force =    -0.00000008   -0.00000027   -0.00000264
     atom   15 type  1   force =     0.00000008    0.00000017   -0.00000270
     atom   16 type  1   force =    -0.00000004   -0.00000022   -0.00000256
     atom   17 type  1   force =     0.00000035    0.00000012   -0.00000262
     atom   18 type  1   force =    -0.00000038    0.00000002   -0.00000266
     atom   19 type  1   force =     0.00000013    0.00000000   -0.00000221
     atom   20 type  1   force =    -0.00000015   -0.00000031   -0.00000232
     atom   21 type  1   force =     0.00000006   -0.00000037   -0.00000234
     atom   22 type  1   force =    -0.00000030    0.00000012   -0.00000224
     atom   23 type  1   force =    -0.00000008    0.00000009   -0.00000227
     atom   24 type  1   force =     0.00000041    0.00000021   -0.00000225
     atom   25 type  1   force =    -0.00000022    0.00000010   -0.00000205
     atom   26 type  1   force =     0.00000030    0.00000022   -0.00000212
     atom   27 type  1   force =    -0.00000003   -0.00000013   -0.00000226
     atom   28 type  1   force =     0.00000001    0.00000000   -0.00000017
     atom   29 type  1   force =     0.00000009   -0.00000036   -0.00000085
     atom   30 type  1   force =    -0.00000011   -0.00000048   -0.00000078
     atom   31 type  1   force =    -0.00000028    0.00000008   -0.00000076
     atom   32 type  1   force =    -0.00000005   -0.00000018   -0.00000109
     atom   33 type  1   force =     0.00000042    0.00000007   -0.00000070
     atom   34 type  1   force =    -0.00000050    0.00000029   -0.00000071
     atom   35 type  1   force =     0.00000040    0.00000036   -0.00000065
     atom   36 type  1   force =     0.00000008    0.00000020   -0.00000021
     atom   37 type  2   force =    -0.00000001   -0.00000002   -0.00000096
     atom   38 type  3   force =    -0.00000001   -0.00000001   -0.00000168

     3D-RISM Solvation contribution to forces:
     atom    1 type  1   force =     0.00000001    0.00000000    0.00001181
     atom    2 type  1   force =     0.00000947    0.00001945    0.00003122
     atom    3 type  1   force =    -0.00000946    0.00001947    0.00003122
     atom    4 type  1   force =     0.00002158   -0.00000153    0.00003122
     atom    5 type  1   force =     0.00000004    0.00000002    0.00007374
     atom    6 type  1   force =    -0.00002159   -0.00000151    0.00003131
     atom    7 type  1   force =     0.00001213   -0.00001793    0.00003122
     atom    8 type  1   force =    -0.00001210   -0.00001794    0.00003131
     atom    9 type  1   force =    -0.00000003   -0.00000002    0.00000659
     atom   10 type  1   force =     0.00011481    0.00006629    0.00005409
     atom   11 type  1   force =     0.00000003    0.00016328    0.00027017
     atom   12 type  1   force =    -0.00011475    0.00006637    0.00005411
     atom   13 type  1   force =     0.00014141   -0.00008162    0.00027018
     atom   14 type  1   force =    -0.00014129   -0.00008157    0.00027021
     atom   15 type  1   force =    -0.00000007   -0.00004711   -0.00002320
     atom   16 type  1   force =     0.00000010   -0.00013256    0.00005411
     atom   17 type  1   force =    -0.00004083    0.00002349   -0.00002321
     atom   18 type  1   force =     0.00004076    0.00002353   -0.00002323
     atom   19 type  1   force =     0.00000007    0.00022323   -0.00025682
     atom   20 type  1   force =     0.00079869    0.00046115    0.00176380
     atom   21 type  1   force =    -0.00079857    0.00046127    0.00176387
     atom   22 type  1   force =     0.00098972   -0.00057149    0.00003765
     atom   23 type  1   force =     0.00000016   -0.00092222    0.00176390
     atom   24 type  1   force =    -0.00098973   -0.00057144    0.00003790
     atom   25 type  1   force =    -0.00019312   -0.00011151   -0.00025704
     atom   26 type  1   force =     0.00019334   -0.00011156   -0.00025685
     atom   27 type  1   force =    -0.00000005    0.00114284    0.00003760
     atom   28 type  1   force =     0.00000027    0.00000022   -0.01582839
     atom   29 type  1   force =     0.00440502    0.00875163    0.00331960
     atom   30 type  1   force =    -0.00440527    0.00875217    0.00331927
     atom   31 type  1   force =     0.00978160   -0.00056081    0.00331990
     atom   32 type  1   force =     0.00000049    0.00000047    0.00529882
     atom   33 type  1   force =    -0.00978208   -0.00056042    0.00332054
     atom   34 type  1   force =     0.00537697   -0.00819135    0.00331949
     atom   35 type  1   force =    -0.00537652   -0.00819146    0.00332046
     atom   36 type  1   force =    -0.00000046   -0.00000043   -0.01778292
     atom   37 type  2   force =     0.00000023    0.00000004   -0.02448993
     atom   38 type  3   force =     0.00000025   -0.00000006   -0.08683161

     Total force =     0.051941     Total SCF correction =     0.000011

     Total 3D-RISM Solvation Force =     0.096918

     Writing output data file Cu-vib.save
 
     init_run     :    412.68s CPU    209.31s WALL (       1 calls)
     electrons    :   6749.59s CPU   3437.62s WALL (       1 calls)
     forces       :     25.74s CPU     13.29s WALL (       1 calls)

     Called by init_run:
     wfcinit      :     58.87s CPU     30.33s WALL (       1 calls)
     wfcinit:atom :      0.02s CPU      0.02s WALL (      34 calls)
     wfcinit:wfcr :     58.53s CPU     29.99s WALL (      34 calls)
     potinit      :    345.20s CPU    174.33s WALL (       1 calls)

     Called by electrons:
     c_bands      :   3768.77s CPU   1934.54s WALL (      32 calls)
     sum_band     :    513.51s CPU    263.75s WALL (      32 calls)
     v_of_rho     :     42.19s CPU     20.80s WALL (      32 calls)
     v_h          :      0.50s CPU      0.51s WALL (      64 calls)
     v_xc         :     43.58s CPU     21.16s WALL (      33 calls)
     newd         :      2.19s CPU      1.16s WALL (      32 calls)
     PAW_pot      :      7.96s CPU      2.61s WALL (      32 calls)
     mix_rho      :      0.53s CPU      0.53s WALL (      32 calls)

     Called by c_bands:
     init_us_2    :      2.47s CPU      1.44s WALL (    2244 calls)
     crmmdiagg    :   2464.42s CPU   1246.21s WALL (    1088 calls)
     wfcrot       :   1303.07s CPU    677.72s WALL (    1054 calls)
     gsorth       :     55.86s CPU     38.22s WALL (    1088 calls)

     Called by sum_band:
     sum_band:bec :      3.23s CPU      1.18s WALL (    1088 calls)
     addusdens    :      3.21s CPU      1.15s WALL (      32 calls)

     Called by *rmmdiagg:
     h_psi        :   3413.62s CPU   1720.91s WALL (    9310 calls)
     s_psi        :     47.29s CPU     25.84s WALL (    9310 calls)
     cdiaghg      :    126.67s CPU     76.73s WALL (    1054 calls)
     cdiaghg:chol :      3.57s CPU      2.66s WALL (    1054 calls)
     cdiaghg:inve :      1.88s CPU      1.72s WALL (    1054 calls)
     cdiaghg:para :      2.68s CPU      1.66s WALL (    2108 calls)

     Called by h_psi:
     h_psi:pot    :   3411.30s CPU   1719.57s WALL (    9310 calls)
     h_psi:calbec :    116.70s CPU     65.05s WALL (    9310 calls)
     vloc_psi     :   3245.38s CPU   1627.79s WALL (    9310 calls)
     add_vuspsi   :     49.03s CPU     26.58s WALL (    9310 calls)

     General routines
     calbec       :    148.87s CPU     83.46s WALL (   10534 calls)
     fft          :     31.22s CPU     14.96s WALL (    2270 calls)
     ffts         :      0.15s CPU      0.15s WALL (      64 calls)
     fftw         :   3642.84s CPU   1829.60s WALL ( 1890500 calls)
     fftc         :      0.21s CPU      0.14s WALL (      64 calls)
     interpolate  :      1.60s CPU      0.57s WALL (      64 calls)
 
     Parallel routines
     fft_scatter  :   2444.58s CPU   1395.36s WALL ( 1987160 calls)

     PAW routines
     PAW_pot      :      7.96s CPU      2.61s WALL (      32 calls)

     RISM routines
     1DRISM_pre   :     28.70s CPU     14.30s WALL (       1 calls)
     1DRISM_run   :      0.29s CPU      1.17s WALL (       1 calls)
     3DRISM_pre   :     10.64s CPU      6.31s WALL (       1 calls)
     3DRISM_run   :   2740.47s CPU   1379.74s WALL (      32 calls)
     3DRISM_for   :      4.97s CPU      2.89s WALL (       1 calls)
     3DRISM_vsol  :      0.20s CPU      0.20s WALL (      32 calls)
 
     PWSCF        :     2h 2m CPU        1h 2m WALL

 
   This run was terminated on:   3:40:40  11Feb2026            

=------------------------------------------------------------------------------=
   JOB DONE.
=------------------------------------------------------------------------------=
