
     Program PWSCF v.6.1 starts on  9Feb2026 at 13:29:42 

     This program is part of the open-source Quantum ESPRESSO suite
     for quantum simulation of materials; please cite
         "P. Giannozzi et al., J. Phys.:Condens. Matter 21 395502 (2009);
          URL http://www.quantum-espresso.org", 
     in publications or presentations arising from this work. More details at
     http://www.quantum-espresso.org/quote

     Parallel version (MPI & OpenMP), running on     192 processor cores
     Number of MPI processes:                96
     Threads/MPI process:                     2
     R & G space division:  proc/nbgrp/npool/nimage =      96
     Reading input from espresso.pwi
Warning: card &IONS ignored
Warning: card    ION_DYNAMICS     = 'BFGS' ignored
Warning: card / ignored
Warning: card &CELL ignored
Warning: card / ignored
Warning: card &FCP ignored
Warning: card / ignored
Warning: card &RISM ignored
Warning: card / ignored

     Current dimensions of program PWSCF are:
     Max number of different atomic species (ntypx) = 10
     Max number of k-points (npk) =  40000
     Max angular momentum in pseudopotentials (lmaxx) =  3

     IMPORTANT: XC functional enforced from input :
     Exchange-correlation      = VDW-DF2 ( 1  4 13  0 2 0)
     Any further DFT definition will be discarded
     Please, verify this is what you really want

               file O.pbe-n-kjpaw_psl.1.0.0.UPF: wavefunction(s)  2S 2P renormalized
               file H.pbe-kjpaw_psl.1.0.0.UPF: wavefunction(s)  1S renormalized

     Subspace diagonalization in iterative solution of the eigenvalue problem:
     one sub-group per band group will be used
     ELPA distributed-memory algorithm (size of sub-group:  6*  6 procs)

 
     Parallelization info
     --------------------
     sticks:   dense  smooth     PW     G-vecs:    dense   smooth      PW
     Min         740     296     74               148294    37508    4688
     Max         741     297     76               148300    37516    4690
     Sum       71041   28417   7129             14236565  3601159  450127
 


     bravais-lattice index     =            0
     lattice parameter (alat)  =      37.7945  a.u.
     unit-cell volume          =   53986.6738 (a.u.)^3
     number of atoms/cell      =            3
     number of atomic types    =            2
     number of electrons       =         8.00
     number of Kohn-Sham states=           40
     kinetic-energy cutoff     =      62.4738  Ry
     charge density cutoff     =     624.7385  Ry
     convergence threshold     =      7.3E-12
     mixing beta               =       0.3333
     number of iterations used =           12  plain     mixing
     Exchange-correlation      = VDW-DF2 ( 1  4 13  0 2 0)

     Effective Screening Medium Method
     =================================
     Boundary Conditions: Vacuum-Slab-Vacuum
     total charge in unit cell        =   0.0000
     grid points for fit at edges     =        4 
 

     celldm(1)=  37.794522  celldm(2)=   0.000000  celldm(3)=   0.000000
     celldm(4)=   0.000000  celldm(5)=   0.000000  celldm(6)=   0.000000

     crystal axes: (cart. coord. in units of alat)
               a(1) = (   1.000000   0.000000   0.000000 )  
               a(2) = (   0.000000   1.000000   0.000000 )  
               a(3) = (   0.000000   0.000000   1.000000 )  

     reciprocal axes: (cart. coord. in units 2 pi/alat)
               b(1) = (  1.000000  0.000000  0.000000 )  
               b(2) = (  0.000000  1.000000  0.000000 )  
               b(3) = (  0.000000  0.000000  1.000000 )  


     PseudoPot. # 1 for  O read from file:
     /work/gf93/f93007/QE/pseudo/O.pbe-n-kjpaw_psl.1.0.0.UPF
     MD5 check sum: c61d840054b6bba219e553541e327118
     Pseudo is Projector augmented-wave + core cor, Zval =  6.0
     Generated using "atomic" code by A. Dal Corso  v.6.1 svn rev. 13369
     Shape of augmentation charge: PSQ
     Using radial grid of 1095 points,  4 beta functions with: 
                l(1) =   0
                l(2) =   0
                l(3) =   1
                l(4) =   1
     Q(r) pseudized with 0 coefficients 


     PseudoPot. # 2 for  H read from file:
     /work/gf93/f93007/QE/pseudo/H.pbe-kjpaw_psl.1.0.0.UPF
     MD5 check sum: 29603ce6b94be0cf73e39cbb1f958d8e
     Pseudo is Projector augmented-wave, Zval =  1.0
     Generated using "atomic" code by A. Dal Corso  v.6.1 svn rev. 13369
     Shape of augmentation charge: PSQ
     Using radial grid of  929 points,  2 beta functions with: 
                l(1) =   0
                l(2) =   0
     Q(r) pseudized with 0 coefficients 


     vdW kernel table read from file vdW_kernel_table
     MD5 check sum: 6d69797d2e858e93e031fb7d16d30e50

     atomic species   valence    mass     pseudopotential
        O              6.00    15.99900      O( 1.00)
        H              1.00     1.00800      H( 1.00)

      2 Sym. Ops. (no inversion) found


                                    s                        frac. trans.

      isym =  1     identity                                     

 cryst.   s( 1) = (     1          0          0      )
                  (     0          1          0      )
                  (     0          0          1      )

 cart.    s( 1) = (  1.0000000  0.0000000  0.0000000 )
                  (  0.0000000  1.0000000  0.0000000 )
                  (  0.0000000  0.0000000  1.0000000 )


      isym =  2     inv. 180 deg rotation - cart. axis [0,1,0]   

 cryst.   s( 2) = (     1          0          0      )
                  (     0         -1          0      )
                  (     0          0          1      )

 cart.    s( 2) = (  1.0000000  0.0000000  0.0000000 )
                  (  0.0000000 -1.0000000  0.0000000 )
                  (  0.0000000  0.0000000  1.0000000 )


   Cartesian axes

     site n.     atom                  positions (alat units)
         1           O   tau(   1) = (   0.5005000   0.5000000   0.0001590  )
         2           H   tau(   2) = (   0.5000000   0.5384535   0.0297364  )
         3           H   tau(   3) = (   0.5000000   0.4615465   0.0297364  )

   Crystallographic axes

     site n.     atom                  positions (cryst. coord.)
         1           O   tau(   1) = (  0.5005000  0.5000000  0.0001590  )
         2           H   tau(   2) = (  0.5000000  0.5384535  0.0297364  )
         3           H   tau(   3) = (  0.5000000  0.4615465  0.0297364  )

     number of k points=     1
                       cart. coord. in units 2pi/alat
        k(    1) = (   0.0000000   0.0000000   0.0000000), wk =   2.0000000

                       cryst. coord.
        k(    1) = (   0.0000000   0.0000000   0.0000000), wk =   2.0000000

     Dense  grid: 14236565 G-vectors     FFT dimensions: ( 320, 320, 320)

     Smooth grid:  3601159 G-vectors     FFT dimensions: ( 192, 192, 192)

     Estimated max dynamical RAM per process >     488.77MB

     Estimated total allocated dynamical RAM >   46922.27MB

     Initial potential from superposition of free atoms
     Check: negative starting charge=   -0.001152

     starting charge    7.99998, renormalised to    8.00000

     negative rho (up, down):  1.152E-03 0.000E+00


     %%%%%%%%%%%%%%%%%%%%%%%%%%%%%%%%%%%%%%%%%%%%%%%%%%%%%%%%%%%%%%%%%%%%%%%%
     %                                                                      %
     % You are using vdW-DF, which was implemented by the Thonhauser group. %
     % Please cite the following two papers that made this development      %
     % possible and the two reviews that describe the various versions:     %
     %                                                                      %
     %   T. Thonhauser et al., PRL 115, 136402 (2015).                      %
     %   T. Thonhauser et al., PRB 76, 125112 (2007).                       %
     %   K. Berland et al., Rep. Prog. Phys. 78, 066501 (2015).             %
     %   D.C. Langreth et al., J. Phys.: Condens. Matter 21, 084203 (2009). %
     %                                                                      %
     %                                                                      %
     % If you are calculating the stress with vdW-DF, please also cite:     %
     %                                                                      %
     %   R. Sabatini et al., J. Phys.: Condens. Matter 24, 424209 (2012).   %
     %                                                                      %
     %%%%%%%%%%%%%%%%%%%%%%%%%%%%%%%%%%%%%%%%%%%%%%%%%%%%%%%%%%%%%%%%%%%%%%%%


     Carrying out vdW-DF run using the following parameters:
     Nqs    =  20  Npoints =  1024  r_max =  100.000
     q_mesh =  0.00001000  0.04494208  0.09755937  0.15916263
               0.23128650  0.31572767  0.41458969  0.53033537
               0.66584808  0.82450364  1.01025438  1.22772762
               1.48234092  1.78043706  2.12944203  2.53805004
               3.01644009  3.57652955  4.23227104  5.00000000


     -----------------------------------------------
     Non-local corr. energy    =       0.13358243 Ry
     -----------------------------------------------

     Starting wfc are    6 randomized atomic wfcs +   34 random wfc
     Checking if some PAW data can be deallocated... 
       node    0, deallocated PAW data for type:  2
       node    1, deallocated PAW data for type:  2
       node    2, deallocated PAW data for type:  2
       node    3, deallocated PAW data for type:  2
       node    4, deallocated PAW data for type:  2
       node    5, deallocated PAW data for type:  2
       node    6, deallocated PAW data for type:  2
       node    7, deallocated PAW data for type:  2
       node    8, deallocated PAW data for type:  2
       node    9, deallocated PAW data for type:  2
       node   10, deallocated PAW data for type:  2
       node   11, deallocated PAW data for type:  2
       node   12, deallocated PAW data for type:  2
       node   13, deallocated PAW data for type:  2
       node   14, deallocated PAW data for type:  2
       node   15, deallocated PAW data for type:  2
       node   16, deallocated PAW data for type:  2
       node   17, deallocated PAW data for type:  2
       node   18, deallocated PAW data for type:  2
       node   19, deallocated PAW data for type:  2
       node   20, deallocated PAW data for type:  2
       node   21, deallocated PAW data for type:  2
       node   22, deallocated PAW data for type:  2
       node   23, deallocated PAW data for type:  2
       node   24, deallocated PAW data for type:  2
       node   25, deallocated PAW data for type:  2
       node   26, deallocated PAW data for type:  2
       node   27, deallocated PAW data for type:  2
       node   28, deallocated PAW data for type:  2
       node   29, deallocated PAW data for type:  2
       node   30, deallocated PAW data for type:  2
       node   31, deallocated PAW data for type:  2
       node   32, deallocated PAW data for type:  1
       node   33, deallocated PAW data for type:  1
       node   34, deallocated PAW data for type:  1
       node   35, deallocated PAW data for type:  1
       node   36, deallocated PAW data for type:  1
       node   37, deallocated PAW data for type:  1
       node   38, deallocated PAW data for type:  1
       node   39, deallocated PAW data for type:  1
       node   40, deallocated PAW data for type:  1
       node   41, deallocated PAW data for type:  1
       node   42, deallocated PAW data for type:  1
       node   43, deallocated PAW data for type:  1
       node   44, deallocated PAW data for type:  1
       node   45, deallocated PAW data for type:  1
       node   46, deallocated PAW data for type:  1
       node   47, deallocated PAW data for type:  1
       node   48, deallocated PAW data for type:  1
       node   49, deallocated PAW data for type:  1
       node   50, deallocated PAW data for type:  1
       node   51, deallocated PAW data for type:  1
       node   52, deallocated PAW data for type:  1
       node   53, deallocated PAW data for type:  1
       node   54, deallocated PAW data for type:  1
       node   55, deallocated PAW data for type:  1
       node   56, deallocated PAW data for type:  1
       node   57, deallocated PAW data for type:  1
       node   58, deallocated PAW data for type:  1
       node   59, deallocated PAW data for type:  1
       node   60, deallocated PAW data for type:  1
       node   61, deallocated PAW data for type:  1
       node   62, deallocated PAW data for type:  1
       node   63, deallocated PAW data for type:  1
       node   64, deallocated PAW data for type:  1
       node   65, deallocated PAW data for type:  1
       node   66, deallocated PAW data for type:  1
       node   67, deallocated PAW data for type:  1
       node   68, deallocated PAW data for type:  1
       node   69, deallocated PAW data for type:  1
       node   70, deallocated PAW data for type:  1
       node   71, deallocated PAW data for type:  1
       node   72, deallocated PAW data for type:  1
       node   73, deallocated PAW data for type:  1
       node   74, deallocated PAW data for type:  1
       node   75, deallocated PAW data for type:  1
       node   76, deallocated PAW data for type:  1
       node   77, deallocated PAW data for type:  1
       node   78, deallocated PAW data for type:  1
       node   79, deallocated PAW data for type:  1
       node   80, deallocated PAW data for type:  1
       node   81, deallocated PAW data for type:  1
       node   82, deallocated PAW data for type:  1
       node   83, deallocated PAW data for type:  1
       node   84, deallocated PAW data for type:  1
       node   85, deallocated PAW data for type:  1
       node   86, deallocated PAW data for type:  1
       node   87, deallocated PAW data for type:  1
       node   88, deallocated PAW data for type:  1
       node   89, deallocated PAW data for type:  1
       node   90, deallocated PAW data for type:  1
       node   91, deallocated PAW data for type:  1
       node   92, deallocated PAW data for type:  1
       node   93, deallocated PAW data for type:  1
       node   94, deallocated PAW data for type:  1
       node   95, deallocated PAW data for type:  1

     total cpu time spent up to now is       25.8 secs

     per-process dynamical memory:   235.5 Mb

     Self-consistent Calculation

     iteration #  1     ecut=    62.47 Ry     beta=0.33
     Davidson diagonalization with overlap
     ethr =  1.00E-02,  avg # of iterations = 12.0

     negative rho (up, down):  1.366E-03 0.000E+00


     -----------------------------------------------
     Non-local corr. energy    =       0.13510420 Ry
     -----------------------------------------------


     total cpu time spent up to now is       35.4 secs

     total energy              =     -44.94346970 Ry
     Harris-Foulkes estimate   =     -45.19776287 Ry
     estimated scf accuracy    <       0.53981991 Ry

     iteration #  2     ecut=    62.47 Ry     beta=0.33
     Davidson diagonalization with overlap
     ethr =  6.75E-03,  avg # of iterations =  1.0

     negative rho (up, down):  8.895E-04 0.000E+00


     -----------------------------------------------
     Non-local corr. energy    =       0.13566476 Ry
     -----------------------------------------------


     total cpu time spent up to now is       42.1 secs

     total energy              =     -44.98701910 Ry
     Harris-Foulkes estimate   =     -45.00613886 Ry
     estimated scf accuracy    <       0.04738442 Ry

     iteration #  3     ecut=    62.47 Ry     beta=0.33
     Davidson diagonalization with overlap
     ethr =  5.92E-04,  avg # of iterations =  6.0

     negative rho (up, down):  1.520E-03 0.000E+00


     -----------------------------------------------
     Non-local corr. energy    =       0.13505713 Ry
     -----------------------------------------------


     total cpu time spent up to now is       50.0 secs

     total energy              =     -45.00695506 Ry
     Harris-Foulkes estimate   =     -45.03664881 Ry
     estimated scf accuracy    <       0.04548661 Ry

     iteration #  4     ecut=    62.47 Ry     beta=0.33
     Davidson diagonalization with overlap
     ethr =  5.69E-04,  avg # of iterations =  3.0

     negative rho (up, down):  1.557E-03 0.000E+00


     -----------------------------------------------
     Non-local corr. energy    =       0.13634828 Ry
     -----------------------------------------------


     total cpu time spent up to now is       56.9 secs

     total energy              =     -45.01001383 Ry
     Harris-Foulkes estimate   =     -45.04426140 Ry
     estimated scf accuracy    <       0.06706732 Ry

     iteration #  5     ecut=    62.47 Ry     beta=0.33
     Davidson diagonalization with overlap
     ethr =  5.69E-04,  avg # of iterations =  3.0

     negative rho (up, down):  1.535E-03 0.000E+00


     -----------------------------------------------
     Non-local corr. energy    =       0.13633585 Ry
     -----------------------------------------------


     total cpu time spent up to now is       63.7 secs

     total energy              =     -45.01998440 Ry
     Harris-Foulkes estimate   =     -45.02001371 Ry
     estimated scf accuracy    <       0.00159009 Ry

     iteration #  6     ecut=    62.47 Ry     beta=0.33
     Davidson diagonalization with overlap
     ethr =  1.99E-05,  avg # of iterations = 13.0

     negative rho (up, down):  1.528E-03 0.000E+00


     -----------------------------------------------
     Non-local corr. energy    =       0.13625408 Ry
     -----------------------------------------------


     total cpu time spent up to now is       72.9 secs

     total energy              =     -45.02470848 Ry
     Harris-Foulkes estimate   =     -45.02494381 Ry
     estimated scf accuracy    <       0.00085756 Ry

     iteration #  7     ecut=    62.47 Ry     beta=0.33
     Davidson diagonalization with overlap
     ethr =  1.07E-05,  avg # of iterations =  1.0

     negative rho (up, down):  1.625E-03 0.000E+00


     -----------------------------------------------
     Non-local corr. energy    =       0.13615027 Ry
     -----------------------------------------------


     total cpu time spent up to now is       79.5 secs

     total energy              =     -45.02447223 Ry
     Harris-Foulkes estimate   =     -45.02472972 Ry
     estimated scf accuracy    <       0.00036716 Ry

     iteration #  8     ecut=    62.47 Ry     beta=0.33
     Davidson diagonalization with overlap
     ethr =  4.59E-06,  avg # of iterations =  3.0

     negative rho (up, down):  1.613E-03 0.000E+00


     -----------------------------------------------
     Non-local corr. energy    =       0.13616037 Ry
     -----------------------------------------------


     total cpu time spent up to now is       86.4 secs

     total energy              =     -45.02470474 Ry
     Harris-Foulkes estimate   =     -45.02479969 Ry
     estimated scf accuracy    <       0.00040422 Ry

     iteration #  9     ecut=    62.47 Ry     beta=0.33
     Davidson diagonalization with overlap
     ethr =  4.59E-06,  avg # of iterations =  1.0

     negative rho (up, down):  1.614E-03 0.000E+00


     -----------------------------------------------
     Non-local corr. energy    =       0.13616350 Ry
     -----------------------------------------------


     total cpu time spent up to now is       93.0 secs

     total energy              =     -45.02469687 Ry
     Harris-Foulkes estimate   =     -45.02471258 Ry
     estimated scf accuracy    <       0.00020241 Ry

     iteration # 10     ecut=    62.47 Ry     beta=0.33
     Davidson diagonalization with overlap
     ethr =  2.53E-06,  avg # of iterations =  1.0

     negative rho (up, down):  1.614E-03 0.000E+00


     -----------------------------------------------
     Non-local corr. energy    =       0.13616337 Ry
     -----------------------------------------------


     total cpu time spent up to now is       99.7 secs

     total energy              =     -45.02469901 Ry
     Harris-Foulkes estimate   =     -45.02470489 Ry
     estimated scf accuracy    <       0.00012263 Ry

     iteration # 11     ecut=    62.47 Ry     beta=0.33
     Davidson diagonalization with overlap
     ethr =  1.53E-06,  avg # of iterations =  1.0

     negative rho (up, down):  1.614E-03 0.000E+00


     -----------------------------------------------
     Non-local corr. energy    =       0.13616337 Ry
     -----------------------------------------------


     total cpu time spent up to now is      106.3 secs

     total energy              =     -45.02470187 Ry
     Harris-Foulkes estimate   =     -45.02470184 Ry
     estimated scf accuracy    <       0.00009703 Ry

     iteration # 12     ecut=    62.47 Ry     beta=0.33
     Davidson diagonalization with overlap
     ethr =  1.21E-06,  avg # of iterations =  1.0

     negative rho (up, down):  1.609E-03 0.000E+00


     -----------------------------------------------
     Non-local corr. energy    =       0.13617335 Ry
     -----------------------------------------------


     total cpu time spent up to now is      112.9 secs

     total energy              =     -45.02468719 Ry
     Harris-Foulkes estimate   =     -45.02470405 Ry
     estimated scf accuracy    <       0.00008416 Ry

     iteration # 13     ecut=    62.47 Ry     beta=0.33
     Davidson diagonalization with overlap
     ethr =  1.05E-06,  avg # of iterations =  1.0

     negative rho (up, down):  1.607E-03 0.000E+00


     -----------------------------------------------
     Non-local corr. energy    =       0.13617474 Ry
     -----------------------------------------------


     total cpu time spent up to now is      119.5 secs

     total energy              =     -45.02468794 Ry
     Harris-Foulkes estimate   =     -45.02469050 Ry
     estimated scf accuracy    <       0.00003932 Ry

     iteration # 14     ecut=    62.47 Ry     beta=0.33
     Davidson diagonalization with overlap
     ethr =  4.91E-07,  avg # of iterations =  3.0

     negative rho (up, down):  1.604E-03 0.000E+00


     -----------------------------------------------
     Non-local corr. energy    =       0.13617658 Ry
     -----------------------------------------------


     total cpu time spent up to now is      126.4 secs

     total energy              =     -45.02469380 Ry
     Harris-Foulkes estimate   =     -45.02469436 Ry
     estimated scf accuracy    <       0.00001101 Ry

     iteration # 15     ecut=    62.47 Ry     beta=0.33
     Davidson diagonalization with overlap
     ethr =  1.38E-07,  avg # of iterations =  1.0

     negative rho (up, down):  1.602E-03 0.000E+00


     -----------------------------------------------
     Non-local corr. energy    =       0.13617688 Ry
     -----------------------------------------------


     total cpu time spent up to now is      133.0 secs

     total energy              =     -45.02469393 Ry
     Harris-Foulkes estimate   =     -45.02469415 Ry
     estimated scf accuracy    <       0.00000806 Ry

     iteration # 16     ecut=    62.47 Ry     beta=0.33
     Davidson diagonalization with overlap
     ethr =  1.01E-07,  avg # of iterations =  1.0

     negative rho (up, down):  1.601E-03 0.000E+00


     -----------------------------------------------
     Non-local corr. energy    =       0.13617763 Ry
     -----------------------------------------------


     total cpu time spent up to now is      139.7 secs

     total energy              =     -45.02469366 Ry
     Harris-Foulkes estimate   =     -45.02469410 Ry
     estimated scf accuracy    <       0.00000667 Ry

     iteration # 17     ecut=    62.47 Ry     beta=0.33
     Davidson diagonalization with overlap
     ethr =  8.33E-08,  avg # of iterations =  1.0

     negative rho (up, down):  1.600E-03 0.000E+00


     -----------------------------------------------
     Non-local corr. energy    =       0.13617732 Ry
     -----------------------------------------------


     total cpu time spent up to now is      146.4 secs

     total energy              =     -45.02469397 Ry
     Harris-Foulkes estimate   =     -45.02469374 Ry
     estimated scf accuracy    <       0.00000514 Ry

     iteration # 18     ecut=    62.47 Ry     beta=0.33
     Davidson diagonalization with overlap
     ethr =  6.42E-08,  avg # of iterations =  1.0

     negative rho (up, down):  1.596E-03 0.000E+00


     -----------------------------------------------
     Non-local corr. energy    =       0.13617057 Ry
     -----------------------------------------------


     total cpu time spent up to now is      153.1 secs

     total energy              =     -45.02469879 Ry
     Harris-Foulkes estimate   =     -45.02469400 Ry
     estimated scf accuracy    <       0.00000567 Ry

     iteration # 19     ecut=    62.47 Ry     beta=0.33
     Davidson diagonalization with overlap
     ethr =  6.42E-08,  avg # of iterations =  3.0

     negative rho (up, down):  1.590E-03 0.000E+00


     -----------------------------------------------
     Non-local corr. energy    =       0.13617088 Ry
     -----------------------------------------------


     total cpu time spent up to now is      160.0 secs

     total energy              =     -45.02469959 Ry
     Harris-Foulkes estimate   =     -45.02469971 Ry
     estimated scf accuracy    <       0.00001916 Ry

     iteration # 20     ecut=    62.47 Ry     beta=0.33
     Davidson diagonalization with overlap
     ethr =  6.42E-08,  avg # of iterations =  1.0

     negative rho (up, down):  1.590E-03 0.000E+00


     -----------------------------------------------
     Non-local corr. energy    =       0.13616901 Ry
     -----------------------------------------------


     total cpu time spent up to now is      166.7 secs

     total energy              =     -45.02470422 Ry
     Harris-Foulkes estimate   =     -45.02469969 Ry
     estimated scf accuracy    <       0.00001816 Ry

     iteration # 21     ecut=    62.47 Ry     beta=0.33
     Davidson diagonalization with overlap
     ethr =  6.42E-08,  avg # of iterations =  1.0

     negative rho (up, down):  1.590E-03 0.000E+00


     -----------------------------------------------
     Non-local corr. energy    =       0.13616901 Ry
     -----------------------------------------------


     total cpu time spent up to now is      173.3 secs

     total energy              =     -45.02470430 Ry
     Harris-Foulkes estimate   =     -45.02470478 Ry
     estimated scf accuracy    <       0.00003243 Ry

     iteration # 22     ecut=    62.47 Ry     beta=0.33
     Davidson diagonalization with overlap
     ethr =  6.42E-08,  avg # of iterations =  1.0

     negative rho (up, down):  1.586E-03 0.000E+00


     -----------------------------------------------
     Non-local corr. energy    =       0.13617330 Ry
     -----------------------------------------------


     total cpu time spent up to now is      179.9 secs

     total energy              =     -45.02469980 Ry
     Harris-Foulkes estimate   =     -45.02470447 Ry
     estimated scf accuracy    <       0.00003144 Ry

     iteration # 23     ecut=    62.47 Ry     beta=0.33
     Davidson diagonalization with overlap
     ethr =  6.42E-08,  avg # of iterations =  1.0

     negative rho (up, down):  1.587E-03 0.000E+00


     -----------------------------------------------
     Non-local corr. energy    =       0.13617504 Ry
     -----------------------------------------------


     total cpu time spent up to now is      186.7 secs

     total energy              =     -45.02469460 Ry
     Harris-Foulkes estimate   =     -45.02469998 Ry
     estimated scf accuracy    <       0.00002279 Ry

     iteration # 24     ecut=    62.47 Ry     beta=0.33
     Davidson diagonalization with overlap
     ethr =  6.42E-08,  avg # of iterations =  2.0

     negative rho (up, down):  1.595E-03 0.000E+00


     -----------------------------------------------
     Non-local corr. energy    =       0.13617265 Ry
     -----------------------------------------------


     total cpu time spent up to now is      193.4 secs

     total energy              =     -45.02469910 Ry
     Harris-Foulkes estimate   =     -45.02469542 Ry
     estimated scf accuracy    <       0.00000870 Ry

     iteration # 25     ecut=    62.47 Ry     beta=0.33
     Davidson diagonalization with overlap
     ethr =  6.42E-08,  avg # of iterations =  1.0

     negative rho (up, down):  1.598E-03 0.000E+00


     -----------------------------------------------
     Non-local corr. energy    =       0.13617354 Ry
     -----------------------------------------------


     total cpu time spent up to now is      200.0 secs

     total energy              =     -45.02470020 Ry
     Harris-Foulkes estimate   =     -45.02469952 Ry
     estimated scf accuracy    <       0.00001885 Ry

     iteration # 26     ecut=    62.47 Ry     beta=0.33
     Davidson diagonalization with overlap
     ethr =  6.42E-08,  avg # of iterations =  2.0

     negative rho (up, down):  1.578E-03 0.000E+00


     -----------------------------------------------
     Non-local corr. energy    =       0.13618152 Ry
     -----------------------------------------------


     total cpu time spent up to now is      206.8 secs

     total energy              =     -45.02468921 Ry
     Harris-Foulkes estimate   =     -45.02470066 Ry
     estimated scf accuracy    <       0.00002769 Ry

     iteration # 27     ecut=    62.47 Ry     beta=0.33
     Davidson diagonalization with overlap
     ethr =  6.42E-08,  avg # of iterations =  3.0

     negative rho (up, down):  1.577E-03 0.000E+00


     -----------------------------------------------
     Non-local corr. energy    =       0.13618026 Ry
     -----------------------------------------------


     total cpu time spent up to now is      213.6 secs

     total energy              =     -45.02469375 Ry
     Harris-Foulkes estimate   =     -45.02469356 Ry
     estimated scf accuracy    <       0.00000025 Ry

     iteration # 28     ecut=    62.47 Ry     beta=0.33
     Davidson diagonalization with overlap
     ethr =  3.16E-09,  avg # of iterations =  3.0

     negative rho (up, down):  1.576E-03 0.000E+00


     -----------------------------------------------
     Non-local corr. energy    =       0.13617918 Ry
     -----------------------------------------------


     total cpu time spent up to now is      220.5 secs

     total energy              =     -45.02469454 Ry
     Harris-Foulkes estimate   =     -45.02469420 Ry
     estimated scf accuracy    <       0.00000354 Ry

     iteration # 29     ecut=    62.47 Ry     beta=0.33
     Davidson diagonalization with overlap
     ethr =  3.16E-09,  avg # of iterations =  1.0

     negative rho (up, down):  1.577E-03 0.000E+00


     -----------------------------------------------
     Non-local corr. energy    =       0.13617799 Ry
     -----------------------------------------------


     total cpu time spent up to now is      227.2 secs

     total energy              =     -45.02469417 Ry
     Harris-Foulkes estimate   =     -45.02469455 Ry
     estimated scf accuracy    <       0.00000427 Ry

     iteration # 30     ecut=    62.47 Ry     beta=0.33
     Davidson diagonalization with overlap
     ethr =  3.16E-09,  avg # of iterations =  1.0

     negative rho (up, down):  1.570E-03 0.000E+00


     -----------------------------------------------
     Non-local corr. energy    =       0.13617821 Ry
     -----------------------------------------------


     total cpu time spent up to now is      233.9 secs

     total energy              =     -45.02469362 Ry
     Harris-Foulkes estimate   =     -45.02469419 Ry
     estimated scf accuracy    <       0.00000317 Ry

     iteration # 31     ecut=    62.47 Ry     beta=0.33
     Davidson diagonalization with overlap
     ethr =  3.16E-09,  avg # of iterations =  3.0

     negative rho (up, down):  1.573E-03 0.000E+00


     -----------------------------------------------
     Non-local corr. energy    =       0.13617787 Ry
     -----------------------------------------------


     total cpu time spent up to now is      240.9 secs

     total energy              =     -45.02469423 Ry
     Harris-Foulkes estimate   =     -45.02469390 Ry
     estimated scf accuracy    <       0.00000041 Ry

     iteration # 32     ecut=    62.47 Ry     beta=0.33
     Davidson diagonalization with overlap
     ethr =  3.16E-09,  avg # of iterations =  3.0

     negative rho (up, down):  1.573E-03 0.000E+00


     -----------------------------------------------
     Non-local corr. energy    =       0.13617838 Ry
     -----------------------------------------------


     total cpu time spent up to now is      247.8 secs

     total energy              =     -45.02469374 Ry
     Harris-Foulkes estimate   =     -45.02469447 Ry
     estimated scf accuracy    <       0.00000308 Ry

     iteration # 33     ecut=    62.47 Ry     beta=0.33
     Davidson diagonalization with overlap
     ethr =  3.16E-09,  avg # of iterations =  3.0

     negative rho (up, down):  1.573E-03 0.000E+00


     -----------------------------------------------
     Non-local corr. energy    =       0.13617815 Ry
     -----------------------------------------------


     total cpu time spent up to now is      254.8 secs

     total energy              =     -45.02469388 Ry
     Harris-Foulkes estimate   =     -45.02469393 Ry
     estimated scf accuracy    <       0.00000056 Ry

     iteration # 34     ecut=    62.47 Ry     beta=0.33
     Davidson diagonalization with overlap
     ethr =  3.16E-09,  avg # of iterations =  3.0

     negative rho (up, down):  1.571E-03 0.000E+00


     -----------------------------------------------
     Non-local corr. energy    =       0.13617857 Ry
     -----------------------------------------------


     total cpu time spent up to now is      261.7 secs

     total energy              =     -45.02469406 Ry
     Harris-Foulkes estimate   =     -45.02469402 Ry
     estimated scf accuracy    <       0.00000002 Ry

     iteration # 35     ecut=    62.47 Ry     beta=0.33
     Davidson diagonalization with overlap
     ethr =  2.24E-10,  avg # of iterations =  4.0

     negative rho (up, down):  1.573E-03 0.000E+00


     -----------------------------------------------
     Non-local corr. energy    =       0.13617869 Ry
     -----------------------------------------------


     total cpu time spent up to now is      268.6 secs

     total energy              =     -45.02469395 Ry
     Harris-Foulkes estimate   =     -45.02469409 Ry
     estimated scf accuracy    <       0.00000006 Ry

     iteration # 36     ecut=    62.47 Ry     beta=0.33
     Davidson diagonalization with overlap
     ethr =  2.24E-10,  avg # of iterations =  3.0

     negative rho (up, down):  1.573E-03 0.000E+00


     -----------------------------------------------
     Non-local corr. energy    =       0.13617854 Ry
     -----------------------------------------------


     total cpu time spent up to now is      275.4 secs

     total energy              =     -45.02469397 Ry
     Harris-Foulkes estimate   =     -45.02469395 Ry
     estimated scf accuracy    <          9.7E-09 Ry

     iteration # 37     ecut=    62.47 Ry     beta=0.33
     Davidson diagonalization with overlap
     ethr =  1.22E-10,  avg # of iterations =  3.0

     negative rho (up, down):  1.572E-03 0.000E+00


     -----------------------------------------------
     Non-local corr. energy    =       0.13617857 Ry
     -----------------------------------------------


     total cpu time spent up to now is      282.2 secs

     total energy              =     -45.02469400 Ry
     Harris-Foulkes estimate   =     -45.02469398 Ry
     estimated scf accuracy    <          2.5E-09 Ry

     iteration # 38     ecut=    62.47 Ry     beta=0.33
     Davidson diagonalization with overlap
     ethr =  3.14E-11,  avg # of iterations =  1.0

     negative rho (up, down):  1.572E-03 0.000E+00


     -----------------------------------------------
     Non-local corr. energy    =       0.13617881 Ry
     -----------------------------------------------


     total cpu time spent up to now is      288.9 secs

     total energy              =     -45.02469402 Ry
     Harris-Foulkes estimate   =     -45.02469400 Ry
     estimated scf accuracy    <          2.5E-10 Ry

     iteration # 39     ecut=    62.47 Ry     beta=0.33
     Davidson diagonalization with overlap
     ethr =  3.15E-12,  avg # of iterations =  4.0

     negative rho (up, down):  1.572E-03 0.000E+00


     -----------------------------------------------
     Non-local corr. energy    =       0.13617862 Ry
     -----------------------------------------------


     total cpu time spent up to now is      295.8 secs

     total energy              =     -45.02469400 Ry
     Harris-Foulkes estimate   =     -45.02469402 Ry
     estimated scf accuracy    <       0.00000002 Ry

     iteration # 40     ecut=    62.47 Ry     beta=0.33
     Davidson diagonalization with overlap
     ethr =  3.15E-12,  avg # of iterations =  4.0

     negative rho (up, down):  1.572E-03 0.000E+00


     -----------------------------------------------
     Non-local corr. energy    =       0.13617865 Ry
     -----------------------------------------------


     total cpu time spent up to now is      302.8 secs

     total energy              =     -45.02469400 Ry
     Harris-Foulkes estimate   =     -45.02469400 Ry
     estimated scf accuracy    <          8.6E-11 Ry

     iteration # 41     ecut=    62.47 Ry     beta=0.33
     Davidson diagonalization with overlap
     ethr =  1.07E-12,  avg # of iterations =  1.0

     negative rho (up, down):  1.572E-03 0.000E+00


     -----------------------------------------------
     Non-local corr. energy    =       0.13617864 Ry
     -----------------------------------------------


     total cpu time spent up to now is      309.5 secs

     total energy              =     -45.02469400 Ry
     Harris-Foulkes estimate   =     -45.02469400 Ry
     estimated scf accuracy    <          2.0E-11 Ry

     iteration # 42     ecut=    62.47 Ry     beta=0.33
     Davidson diagonalization with overlap
     ethr =  2.48E-13,  avg # of iterations =  1.0

     negative rho (up, down):  1.572E-03 0.000E+00


     -----------------------------------------------
     Non-local corr. energy    =       0.13617863 Ry
     -----------------------------------------------


     total cpu time spent up to now is      316.1 secs

     total energy              =     -45.02469400 Ry
     Harris-Foulkes estimate   =     -45.02469400 Ry
     estimated scf accuracy    <          2.4E-11 Ry

     iteration # 43     ecut=    62.47 Ry     beta=0.33
     Davidson diagonalization with overlap
     ethr =  2.48E-13,  avg # of iterations =  2.0

     negative rho (up, down):  1.572E-03 0.000E+00


     -----------------------------------------------
     Non-local corr. energy    =       0.13617863 Ry
     -----------------------------------------------


     total cpu time spent up to now is      323.0 secs

     total energy              =     -45.02469400 Ry
     Harris-Foulkes estimate   =     -45.02469400 Ry
     estimated scf accuracy    <          3.2E-11 Ry

     iteration # 44     ecut=    62.47 Ry     beta=0.33
     Davidson diagonalization with overlap
     ethr =  2.48E-13,  avg # of iterations =  1.0

     negative rho (up, down):  1.572E-03 0.000E+00


     -----------------------------------------------
     Non-local corr. energy    =       0.13617863 Ry
     -----------------------------------------------


     total cpu time spent up to now is      329.7 secs

     total energy              =     -45.02469400 Ry
     Harris-Foulkes estimate   =     -45.02469400 Ry
     estimated scf accuracy    <          2.4E-11 Ry

     iteration # 45     ecut=    62.47 Ry     beta=0.33
     Davidson diagonalization with overlap
     ethr =  2.48E-13,  avg # of iterations =  1.0

     negative rho (up, down):  1.572E-03 0.000E+00


     -----------------------------------------------
     Non-local corr. energy    =       0.13617863 Ry
     -----------------------------------------------


     total cpu time spent up to now is      336.3 secs

     total energy              =     -45.02469400 Ry
     Harris-Foulkes estimate   =     -45.02469400 Ry
     estimated scf accuracy    <          2.5E-11 Ry

     iteration # 46     ecut=    62.47 Ry     beta=0.33
     Davidson diagonalization with overlap
     ethr =  2.48E-13,  avg # of iterations =  1.0

     negative rho (up, down):  1.572E-03 0.000E+00


     -----------------------------------------------
     Non-local corr. energy    =       0.13617863 Ry
     -----------------------------------------------


     total cpu time spent up to now is      342.9 secs

     total energy              =     -45.02469400 Ry
     Harris-Foulkes estimate   =     -45.02469400 Ry
     estimated scf accuracy    <          2.5E-11 Ry

     iteration # 47     ecut=    62.47 Ry     beta=0.33
     Davidson diagonalization with overlap
     ethr =  2.48E-13,  avg # of iterations =  1.0

     negative rho (up, down):  1.572E-03 0.000E+00


     -----------------------------------------------
     Non-local corr. energy    =       0.13617864 Ry
     -----------------------------------------------


     total cpu time spent up to now is      349.6 secs

     total energy              =     -45.02469400 Ry
     Harris-Foulkes estimate   =     -45.02469400 Ry
     estimated scf accuracy    <          2.3E-11 Ry

     iteration # 48     ecut=    62.47 Ry     beta=0.33
     Davidson diagonalization with overlap
     ethr =  2.48E-13,  avg # of iterations =  1.0

     negative rho (up, down):  1.572E-03 0.000E+00


     -----------------------------------------------
     Non-local corr. energy    =       0.13617864 Ry
     -----------------------------------------------


     total cpu time spent up to now is      356.3 secs

     total energy              =     -45.02469400 Ry
     Harris-Foulkes estimate   =     -45.02469400 Ry
     estimated scf accuracy    <          9.1E-12 Ry

     iteration # 49     ecut=    62.47 Ry     beta=0.33
     Davidson diagonalization with overlap
     ethr =  1.14E-13,  avg # of iterations =  3.0

     negative rho (up, down):  1.572E-03 0.000E+00


     -----------------------------------------------
     Non-local corr. energy    =       0.13617863 Ry
     -----------------------------------------------


     total cpu time spent up to now is      363.0 secs

     End of self-consistent calculation

          k = 0.0000 0.0000 0.0000 (450127 PWs)   bands (ev):

   -25.6217 -13.5469  -9.6931  -7.6567  -1.4711  -0.1534  -0.0056   0.1333
     0.1428   0.1858   0.2113   0.3025   0.3139   0.4477   0.4675   0.5453
     0.5465   0.5494   0.5597   0.5767   0.5871   0.5880   0.5883   0.7559
     0.7780   0.8642   0.8802   0.9201   0.9279   0.9421   0.9552   1.0766
     1.1136   1.2059   1.2247   1.2632   1.2926   1.3846   1.4173   1.4995

     occupation numbers 
     1.0000   1.0000   1.0000   1.0000   0.0000   0.0000   0.0000   0.0000
     0.0000   0.0000   0.0000   0.0000   0.0000   0.0000   0.0000   0.0000
     0.0000   0.0000   0.0000   0.0000   0.0000   0.0000   0.0000   0.0000
     0.0000   0.0000   0.0000   0.0000   0.0000   0.0000   0.0000   0.0000
     0.0000   0.0000   0.0000   0.0000   0.0000   0.0000   0.0000   0.0000

     highest occupied, lowest unoccupied level (ev):    -7.6567   -1.4711

!    total energy              =     -45.02469400 Ry
     Harris-Foulkes estimate   =     -45.02469400 Ry
     estimated scf accuracy    <          3.2E-12 Ry

     total all-electron energy =      -153.871576 Ry

     The total energy is the sum of the following terms:

     one-electron contribution =     -68.85873995 Ry
     hartree contribution      =      36.11578523 Ry
     xc contribution           =      -9.22864237 Ry
     ewald contribution        =       7.17269824 Ry
     one-center paw contrib.   =     -10.22579515 Ry
      -> PAW hartree energy AE =      27.89570267 Ry
      -> PAW hartree energy PS =     -27.86101842 Ry
      -> PAW xc energy AE      =     -17.90371430 Ry
      -> PAW xc energy PS      =       7.64448003 Ry
      -> total E_H with PAW    =      36.15046948 Ry
      -> total E_XC with PAW   =     -19.48787664 Ry

     convergence has been achieved in  49 iterations

     negative rho (up, down):  1.572E-03 0.000E+00


     -----------------------------------------------
     Non-local corr. energy    =       0.13617863 Ry
     -----------------------------------------------


     Forces acting on atoms (cartesian axes, Ry/au):

     atom    1 type  1   force =     0.00000144    0.00000000    0.00011961
     atom    2 type  2   force =    -0.00000072   -0.00004646   -0.00005660
     atom    3 type  2   force =    -0.00000072    0.00004646   -0.00005660
     The non-local contrib.  to forces
     atom    1 type  1   force =    -0.04250653    0.00000000    2.51655265
     atom    2 type  2   force =     0.00110525   -0.09241775   -0.06537612
     atom    3 type  2   force =     0.00110525    0.09241775   -0.06537612
     The ionic contribution  to forces
     atom    1 type  1   force =     0.07352954    0.00000000   -4.35634376
     atom    2 type  2   force =    -0.03676477    3.06368656    2.17817188
     atom    3 type  2   force =    -0.03676477   -3.06368656    2.17817188
     The local contribution  to forces
     atom    1 type  1   force =    -0.03143078   -0.00001432    1.86411908
     atom    2 type  2   force =     0.03565837   -2.97131525   -2.11285124
     atom    3 type  2   force =     0.03565840    2.97131461   -2.11285268
     The core correction contribution to forces
     atom    1 type  1   force =     0.00040868    0.00000004   -0.02420653
     atom    2 type  2   force =     0.00000000    0.00000000    0.00000000
     atom    3 type  2   force =     0.00000000    0.00000000    0.00000000
     The Hubbard contrib.    to forces
     atom    1 type  1   force =     0.00000000    0.00000000    0.00000000
     atom    2 type  2   force =     0.00000000    0.00000000    0.00000000
     atom    3 type  2   force =     0.00000000    0.00000000    0.00000000
     The SCF correction term to forces
     atom    1 type  1   force =     0.00000011    0.00000000   -0.00000182
     atom    2 type  2   force =     0.00000001   -0.00000035   -0.00000040
     atom    3 type  2   force =     0.00000001    0.00000035   -0.00000040

     Total force =     0.000158     Total SCF correction =     0.000002

     Writing output data file H2O_IR.save
 
     init_run     :     45.47s CPU     24.16s WALL (       1 calls)
     electrons    :    658.20s CPU    337.87s WALL (       1 calls)
     forces       :     15.71s CPU      7.58s WALL (       1 calls)

     Called by init_run:
     wfcinit      :      0.38s CPU      0.39s WALL (       1 calls)
     wfcinit:atom :      0.00s CPU      0.00s WALL (       1 calls)
     wfcinit:wfcr :      0.36s CPU      0.36s WALL (       1 calls)
     potinit      :     14.49s CPU      7.10s WALL (       1 calls)

     Called by electrons:
     c_bands      :     88.45s CPU     47.12s WALL (      49 calls)
     sum_band     :     48.01s CPU     22.56s WALL (      49 calls)
     v_of_rho     :    502.92s CPU    257.12s WALL (      50 calls)
     v_h          :      7.24s CPU      3.32s WALL (      50 calls)
     v_xc         :    505.75s CPU    258.83s WALL (      51 calls)
     newd         :     11.18s CPU      7.07s WALL (      50 calls)
     PAW_pot      :      3.87s CPU      1.84s WALL (      50 calls)
     mix_rho      :      8.03s CPU      4.95s WALL (      49 calls)

     Called by c_bands:
     init_us_2    :      0.08s CPU      0.09s WALL (      99 calls)
     cegterg      :     88.31s CPU     46.97s WALL (      49 calls)

     Called by sum_band:
     sum_band:bec :      0.00s CPU      0.00s WALL (      49 calls)
     addusdens    :      5.55s CPU      4.01s WALL (      49 calls)

     Called by *egterg:
     h_psi        :     63.62s CPU     33.19s WALL (     167 calls)
     s_psi        :      0.04s CPU      0.04s WALL (     167 calls)
     g_psi        :      0.02s CPU      0.02s WALL (     117 calls)
     cdiaghg      :      8.28s CPU      5.36s WALL (     166 calls)
     cegterg:over :      5.81s CPU      1.75s WALL (     117 calls)
     cegterg:upda :      1.62s CPU      0.61s WALL (     117 calls)
     cegterg:last :      1.28s CPU      0.27s WALL (      53 calls)
     cdiaghg:chol :      0.16s CPU      0.16s WALL (     166 calls)
     cdiaghg:inve :      0.11s CPU      0.11s WALL (     166 calls)
     cdiaghg:para :      0.12s CPU      0.12s WALL (     332 calls)

     Called by h_psi:
     h_psi:pot    :     63.56s CPU     33.13s WALL (     167 calls)
     h_psi:calbec :      0.76s CPU      0.13s WALL (     167 calls)
     vloc_psi     :     62.75s CPU     32.95s WALL (     167 calls)
     add_vuspsi   :      0.04s CPU      0.04s WALL (     167 calls)

     General routines
     calbec       :      0.81s CPU      0.19s WALL (     220 calls)
     fft          :    274.11s CPU    135.00s WALL (    3357 calls)
     ffts         :      1.72s CPU      0.70s WALL (      99 calls)
     fftw         :     73.91s CPU     35.97s WALL (   11094 calls)
     interpolate  :     12.29s CPU      4.68s WALL (      99 calls)
 
     Parallel routines
     fft_scatter  :    218.89s CPU    108.99s WALL (   14550 calls)

     PAW routines
     PAW_pot      :      3.87s CPU      1.84s WALL (      50 calls)
     PAW_symme    :      0.01s CPU      0.01s WALL (      99 calls)
 
     PWSCF        : 12m 5.88s CPU     6m14.54s WALL

 
   This run was terminated on:  13:35:57   9Feb2026            

=------------------------------------------------------------------------------=
   JOB DONE.
=------------------------------------------------------------------------------=
