
     Program PWSCF v.6.1 starts on  9Feb2026 at 14:43:16 

     This program is part of the open-source Quantum ESPRESSO suite
     for quantum simulation of materials; please cite
         "P. Giannozzi et al., J. Phys.:Condens. Matter 21 395502 (2009);
          URL http://www.quantum-espresso.org", 
     in publications or presentations arising from this work. More details at
     http://www.quantum-espresso.org/quote

     Parallel version (MPI & OpenMP), running on     192 processor cores
     Number of MPI processes:                96
     Threads/MPI process:                     2
     R & G space division:  proc/nbgrp/npool/nimage =      96
     Reading input from espresso.pwi
Warning: card &IONS ignored
Warning: card    ION_DYNAMICS     = 'BFGS' ignored
Warning: card / ignored
Warning: card &CELL ignored
Warning: card / ignored
Warning: card &FCP ignored
Warning: card / ignored
Warning: card &RISM ignored
Warning: card / ignored

     Current dimensions of program PWSCF are:
     Max number of different atomic species (ntypx) = 10
     Max number of k-points (npk) =  40000
     Max angular momentum in pseudopotentials (lmaxx) =  3

     IMPORTANT: XC functional enforced from input :
     Exchange-correlation      = VDW-DF2 ( 1  4 13  0 2 0)
     Any further DFT definition will be discarded
     Please, verify this is what you really want

               file O.pbe-n-kjpaw_psl.1.0.0.UPF: wavefunction(s)  2S 2P renormalized
               file H.pbe-kjpaw_psl.1.0.0.UPF: wavefunction(s)  1S renormalized

     Subspace diagonalization in iterative solution of the eigenvalue problem:
     one sub-group per band group will be used
     ELPA distributed-memory algorithm (size of sub-group:  6*  6 procs)

 
     Parallelization info
     --------------------
     sticks:   dense  smooth     PW     G-vecs:    dense   smooth      PW
     Min         740     296     74               148294    37508    4688
     Max         741     297     76               148300    37516    4690
     Sum       71041   28417   7129             14236565  3601159  450127
 


     bravais-lattice index     =            0
     lattice parameter (alat)  =      37.7945  a.u.
     unit-cell volume          =   53986.6738 (a.u.)^3
     number of atoms/cell      =            3
     number of atomic types    =            2
     number of electrons       =         8.00
     number of Kohn-Sham states=           40
     kinetic-energy cutoff     =      62.4738  Ry
     charge density cutoff     =     624.7385  Ry
     convergence threshold     =      7.3E-12
     mixing beta               =       0.3333
     number of iterations used =           12  plain     mixing
     Exchange-correlation      = VDW-DF2 ( 1  4 13  0 2 0)

     Effective Screening Medium Method
     =================================
     Boundary Conditions: Vacuum-Slab-Vacuum
     total charge in unit cell        =   0.0000
     grid points for fit at edges     =        4 
 

     celldm(1)=  37.794522  celldm(2)=   0.000000  celldm(3)=   0.000000
     celldm(4)=   0.000000  celldm(5)=   0.000000  celldm(6)=   0.000000

     crystal axes: (cart. coord. in units of alat)
               a(1) = (   1.000000   0.000000   0.000000 )  
               a(2) = (   0.000000   1.000000   0.000000 )  
               a(3) = (   0.000000   0.000000   1.000000 )  

     reciprocal axes: (cart. coord. in units 2 pi/alat)
               b(1) = (  1.000000  0.000000  0.000000 )  
               b(2) = (  0.000000  1.000000  0.000000 )  
               b(3) = (  0.000000  0.000000  1.000000 )  


     PseudoPot. # 1 for  O read from file:
     /work/gf93/f93007/QE/pseudo/O.pbe-n-kjpaw_psl.1.0.0.UPF
     MD5 check sum: c61d840054b6bba219e553541e327118
     Pseudo is Projector augmented-wave + core cor, Zval =  6.0
     Generated using "atomic" code by A. Dal Corso  v.6.1 svn rev. 13369
     Shape of augmentation charge: PSQ
     Using radial grid of 1095 points,  4 beta functions with: 
                l(1) =   0
                l(2) =   0
                l(3) =   1
                l(4) =   1
     Q(r) pseudized with 0 coefficients 


     PseudoPot. # 2 for  H read from file:
     /work/gf93/f93007/QE/pseudo/H.pbe-kjpaw_psl.1.0.0.UPF
     MD5 check sum: 29603ce6b94be0cf73e39cbb1f958d8e
     Pseudo is Projector augmented-wave, Zval =  1.0
     Generated using "atomic" code by A. Dal Corso  v.6.1 svn rev. 13369
     Shape of augmentation charge: PSQ
     Using radial grid of  929 points,  2 beta functions with: 
                l(1) =   0
                l(2) =   0
     Q(r) pseudized with 0 coefficients 


     vdW kernel table read from file vdW_kernel_table
     MD5 check sum: 6d69797d2e858e93e031fb7d16d30e50

     atomic species   valence    mass     pseudopotential
        O              6.00    15.99900      O( 1.00)
        H              1.00     1.00800      H( 1.00)

     No symmetry found


                                    s                        frac. trans.

      isym =  1     identity                                     

 cryst.   s( 1) = (     1          0          0      )
                  (     0          1          0      )
                  (     0          0          1      )

 cart.    s( 1) = (  1.0000000  0.0000000  0.0000000 )
                  (  0.0000000  1.0000000  0.0000000 )
                  (  0.0000000  0.0000000  1.0000000 )


   Cartesian axes

     site n.     atom                  positions (alat units)
         1           O   tau(   1) = (   0.5000000   0.5000000   0.0001590  )
         2           H   tau(   2) = (   0.5000000   0.5384535   0.0297364  )
         3           H   tau(   3) = (   0.5005000   0.4615465   0.0297364  )

   Crystallographic axes

     site n.     atom                  positions (cryst. coord.)
         1           O   tau(   1) = (  0.5000000  0.5000000  0.0001590  )
         2           H   tau(   2) = (  0.5000000  0.5384535  0.0297364  )
         3           H   tau(   3) = (  0.5005000  0.4615465  0.0297364  )

     number of k points=     1
                       cart. coord. in units 2pi/alat
        k(    1) = (   0.0000000   0.0000000   0.0000000), wk =   2.0000000

                       cryst. coord.
        k(    1) = (   0.0000000   0.0000000   0.0000000), wk =   2.0000000

     Dense  grid: 14236565 G-vectors     FFT dimensions: ( 320, 320, 320)

     Smooth grid:  3601159 G-vectors     FFT dimensions: ( 192, 192, 192)

     Estimated max dynamical RAM per process >     488.77MB

     Estimated total allocated dynamical RAM >   46922.27MB

     Initial potential from superposition of free atoms
     Check: negative starting charge=   -0.001152

     starting charge    7.99998, renormalised to    8.00000

     negative rho (up, down):  1.152E-03 0.000E+00


     %%%%%%%%%%%%%%%%%%%%%%%%%%%%%%%%%%%%%%%%%%%%%%%%%%%%%%%%%%%%%%%%%%%%%%%%
     %                                                                      %
     % You are using vdW-DF, which was implemented by the Thonhauser group. %
     % Please cite the following two papers that made this development      %
     % possible and the two reviews that describe the various versions:     %
     %                                                                      %
     %   T. Thonhauser et al., PRL 115, 136402 (2015).                      %
     %   T. Thonhauser et al., PRB 76, 125112 (2007).                       %
     %   K. Berland et al., Rep. Prog. Phys. 78, 066501 (2015).             %
     %   D.C. Langreth et al., J. Phys.: Condens. Matter 21, 084203 (2009). %
     %                                                                      %
     %                                                                      %
     % If you are calculating the stress with vdW-DF, please also cite:     %
     %                                                                      %
     %   R. Sabatini et al., J. Phys.: Condens. Matter 24, 424209 (2012).   %
     %                                                                      %
     %%%%%%%%%%%%%%%%%%%%%%%%%%%%%%%%%%%%%%%%%%%%%%%%%%%%%%%%%%%%%%%%%%%%%%%%


     Carrying out vdW-DF run using the following parameters:
     Nqs    =  20  Npoints =  1024  r_max =  100.000
     q_mesh =  0.00001000  0.04494208  0.09755937  0.15916263
               0.23128650  0.31572767  0.41458969  0.53033537
               0.66584808  0.82450364  1.01025438  1.22772762
               1.48234092  1.78043706  2.12944203  2.53805004
               3.01644009  3.57652955  4.23227104  5.00000000


     -----------------------------------------------
     Non-local corr. energy    =       0.13358247 Ry
     -----------------------------------------------

     Starting wfc are    6 randomized atomic wfcs +   34 random wfc
     Checking if some PAW data can be deallocated... 
       node    0, deallocated PAW data for type:  2
       node    1, deallocated PAW data for type:  2
       node    2, deallocated PAW data for type:  2
       node    3, deallocated PAW data for type:  2
       node    4, deallocated PAW data for type:  2
       node    5, deallocated PAW data for type:  2
       node    6, deallocated PAW data for type:  2
       node    7, deallocated PAW data for type:  2
       node    8, deallocated PAW data for type:  2
       node    9, deallocated PAW data for type:  2
       node   10, deallocated PAW data for type:  2
       node   11, deallocated PAW data for type:  2
       node   12, deallocated PAW data for type:  2
       node   13, deallocated PAW data for type:  2
       node   14, deallocated PAW data for type:  2
       node   15, deallocated PAW data for type:  2
       node   16, deallocated PAW data for type:  2
       node   17, deallocated PAW data for type:  2
       node   18, deallocated PAW data for type:  2
       node   19, deallocated PAW data for type:  2
       node   20, deallocated PAW data for type:  2
       node   21, deallocated PAW data for type:  2
       node   22, deallocated PAW data for type:  2
       node   23, deallocated PAW data for type:  2
       node   24, deallocated PAW data for type:  2
       node   25, deallocated PAW data for type:  2
       node   26, deallocated PAW data for type:  2
       node   27, deallocated PAW data for type:  2
       node   28, deallocated PAW data for type:  2
       node   29, deallocated PAW data for type:  2
       node   30, deallocated PAW data for type:  2
       node   31, deallocated PAW data for type:  2
       node   32, deallocated PAW data for type:  1
       node   33, deallocated PAW data for type:  1
       node   34, deallocated PAW data for type:  1
       node   35, deallocated PAW data for type:  1
       node   36, deallocated PAW data for type:  1
       node   37, deallocated PAW data for type:  1
       node   38, deallocated PAW data for type:  1
       node   39, deallocated PAW data for type:  1
       node   40, deallocated PAW data for type:  1
       node   41, deallocated PAW data for type:  1
       node   42, deallocated PAW data for type:  1
       node   43, deallocated PAW data for type:  1
       node   44, deallocated PAW data for type:  1
       node   45, deallocated PAW data for type:  1
       node   46, deallocated PAW data for type:  1
       node   47, deallocated PAW data for type:  1
       node   48, deallocated PAW data for type:  1
       node   49, deallocated PAW data for type:  1
       node   50, deallocated PAW data for type:  1
       node   51, deallocated PAW data for type:  1
       node   52, deallocated PAW data for type:  1
       node   53, deallocated PAW data for type:  1
       node   54, deallocated PAW data for type:  1
       node   55, deallocated PAW data for type:  1
       node   56, deallocated PAW data for type:  1
       node   57, deallocated PAW data for type:  1
       node   58, deallocated PAW data for type:  1
       node   59, deallocated PAW data for type:  1
       node   60, deallocated PAW data for type:  1
       node   61, deallocated PAW data for type:  1
       node   62, deallocated PAW data for type:  1
       node   63, deallocated PAW data for type:  1
       node   64, deallocated PAW data for type:  1
       node   65, deallocated PAW data for type:  1
       node   66, deallocated PAW data for type:  1
       node   67, deallocated PAW data for type:  1
       node   68, deallocated PAW data for type:  1
       node   69, deallocated PAW data for type:  1
       node   70, deallocated PAW data for type:  1
       node   71, deallocated PAW data for type:  1
       node   72, deallocated PAW data for type:  1
       node   73, deallocated PAW data for type:  1
       node   74, deallocated PAW data for type:  1
       node   75, deallocated PAW data for type:  1
       node   76, deallocated PAW data for type:  1
       node   77, deallocated PAW data for type:  1
       node   78, deallocated PAW data for type:  1
       node   79, deallocated PAW data for type:  1
       node   80, deallocated PAW data for type:  1
       node   81, deallocated PAW data for type:  1
       node   82, deallocated PAW data for type:  1
       node   83, deallocated PAW data for type:  1
       node   84, deallocated PAW data for type:  1
       node   85, deallocated PAW data for type:  1
       node   86, deallocated PAW data for type:  1
       node   87, deallocated PAW data for type:  1
       node   88, deallocated PAW data for type:  1
       node   89, deallocated PAW data for type:  1
       node   90, deallocated PAW data for type:  1
       node   91, deallocated PAW data for type:  1
       node   92, deallocated PAW data for type:  1
       node   93, deallocated PAW data for type:  1
       node   94, deallocated PAW data for type:  1
       node   95, deallocated PAW data for type:  1

     total cpu time spent up to now is       25.3 secs

     per-process dynamical memory:   213.0 Mb

     Self-consistent Calculation

     iteration #  1     ecut=    62.47 Ry     beta=0.33
     Davidson diagonalization with overlap
     ethr =  1.00E-02,  avg # of iterations = 12.0

     negative rho (up, down):  1.366E-03 0.000E+00


     -----------------------------------------------
     Non-local corr. energy    =       0.13510400 Ry
     -----------------------------------------------


     total cpu time spent up to now is       34.6 secs

     total energy              =     -44.94351033 Ry
     Harris-Foulkes estimate   =     -45.19777616 Ry
     estimated scf accuracy    <       0.53975863 Ry

     iteration #  2     ecut=    62.47 Ry     beta=0.33
     Davidson diagonalization with overlap
     ethr =  6.75E-03,  avg # of iterations =  1.0

     negative rho (up, down):  9.251E-04 0.000E+00


     -----------------------------------------------
     Non-local corr. energy    =       0.13567717 Ry
     -----------------------------------------------


     total cpu time spent up to now is       41.3 secs

     total energy              =     -44.98609177 Ry
     Harris-Foulkes estimate   =     -45.00571851 Ry
     estimated scf accuracy    <       0.04811491 Ry

     iteration #  3     ecut=    62.47 Ry     beta=0.33
     Davidson diagonalization with overlap
     ethr =  6.01E-04,  avg # of iterations =  6.0

     negative rho (up, down):  1.502E-03 0.000E+00


     -----------------------------------------------
     Non-local corr. energy    =       0.13505110 Ry
     -----------------------------------------------


     total cpu time spent up to now is       49.0 secs

     total energy              =     -45.00640686 Ry
     Harris-Foulkes estimate   =     -45.03707352 Ry
     estimated scf accuracy    <       0.04711163 Ry

     iteration #  4     ecut=    62.47 Ry     beta=0.33
     Davidson diagonalization with overlap
     ethr =  5.89E-04,  avg # of iterations =  3.0

     negative rho (up, down):  1.560E-03 0.000E+00


     -----------------------------------------------
     Non-local corr. energy    =       0.13635348 Ry
     -----------------------------------------------


     total cpu time spent up to now is       55.8 secs

     total energy              =     -45.01050837 Ry
     Harris-Foulkes estimate   =     -45.04365437 Ry
     estimated scf accuracy    <       0.06491770 Ry

     iteration #  5     ecut=    62.47 Ry     beta=0.33
     Davidson diagonalization with overlap
     ethr =  5.89E-04,  avg # of iterations =  1.0

     negative rho (up, down):  1.491E-03 0.000E+00


     -----------------------------------------------
     Non-local corr. energy    =       0.13631209 Ry
     -----------------------------------------------


     total cpu time spent up to now is       62.3 secs

     total energy              =     -45.01781897 Ry
     Harris-Foulkes estimate   =     -45.01816755 Ry
     estimated scf accuracy    <       0.00393908 Ry

     iteration #  6     ecut=    62.47 Ry     beta=0.33
     Davidson diagonalization with overlap
     ethr =  4.92E-05,  avg # of iterations = 13.0

     negative rho (up, down):  1.494E-03 0.000E+00


     -----------------------------------------------
     Non-local corr. energy    =       0.13625173 Ry
     -----------------------------------------------


     total cpu time spent up to now is       70.8 secs

     total energy              =     -45.02475512 Ry
     Harris-Foulkes estimate   =     -45.02509181 Ry
     estimated scf accuracy    <       0.00145473 Ry

     iteration #  7     ecut=    62.47 Ry     beta=0.33
     Davidson diagonalization with overlap
     ethr =  1.82E-05,  avg # of iterations =  3.0

     negative rho (up, down):  1.564E-03 0.000E+00


     -----------------------------------------------
     Non-local corr. energy    =       0.13617661 Ry
     -----------------------------------------------


     total cpu time spent up to now is       77.5 secs

     total energy              =     -45.02444531 Ry
     Harris-Foulkes estimate   =     -45.02478549 Ry
     estimated scf accuracy    <       0.00071788 Ry

     iteration #  8     ecut=    62.47 Ry     beta=0.33
     Davidson diagonalization with overlap
     ethr =  8.97E-06,  avg # of iterations =  3.0

     negative rho (up, down):  1.564E-03 0.000E+00


     -----------------------------------------------
     Non-local corr. energy    =       0.13616782 Ry
     -----------------------------------------------


     total cpu time spent up to now is       84.2 secs

     total energy              =     -45.02466692 Ry
     Harris-Foulkes estimate   =     -45.02466398 Ry
     estimated scf accuracy    <       0.00001502 Ry

     iteration #  9     ecut=    62.47 Ry     beta=0.33
     Davidson diagonalization with overlap
     ethr =  1.88E-07,  avg # of iterations = 20.0

     negative rho (up, down):  1.578E-03 0.000E+00


     -----------------------------------------------
     Non-local corr. energy    =       0.13616743 Ry
     -----------------------------------------------


     total cpu time spent up to now is       92.7 secs

     total energy              =     -45.02471075 Ry
     Harris-Foulkes estimate   =     -45.02471183 Ry
     estimated scf accuracy    <       0.00006836 Ry

     iteration # 10     ecut=    62.47 Ry     beta=0.33
     Davidson diagonalization with overlap
     ethr =  1.88E-07,  avg # of iterations =  1.0

     negative rho (up, down):  1.597E-03 0.000E+00


     -----------------------------------------------
     Non-local corr. energy    =       0.13617511 Ry
     -----------------------------------------------


     total cpu time spent up to now is       99.2 secs

     total energy              =     -45.02469736 Ry
     Harris-Foulkes estimate   =     -45.02471077 Ry
     estimated scf accuracy    <       0.00006729 Ry

     iteration # 11     ecut=    62.47 Ry     beta=0.33
     Davidson diagonalization with overlap
     ethr =  1.88E-07,  avg # of iterations =  1.0

     negative rho (up, down):  1.598E-03 0.000E+00


     -----------------------------------------------
     Non-local corr. energy    =       0.13617565 Ry
     -----------------------------------------------


     total cpu time spent up to now is      105.7 secs

     total energy              =     -45.02469699 Ry
     Harris-Foulkes estimate   =     -45.02469828 Ry
     estimated scf accuracy    <       0.00003730 Ry

     iteration # 12     ecut=    62.47 Ry     beta=0.33
     Davidson diagonalization with overlap
     ethr =  1.88E-07,  avg # of iterations =  1.0

     negative rho (up, down):  1.599E-03 0.000E+00


     -----------------------------------------------
     Non-local corr. energy    =       0.13617557 Ry
     -----------------------------------------------


     total cpu time spent up to now is      112.3 secs

     total energy              =     -45.02469614 Ry
     Harris-Foulkes estimate   =     -45.02469731 Ry
     estimated scf accuracy    <       0.00003289 Ry

     iteration # 13     ecut=    62.47 Ry     beta=0.33
     Davidson diagonalization with overlap
     ethr =  1.88E-07,  avg # of iterations =  1.0

     negative rho (up, down):  1.598E-03 0.000E+00


     -----------------------------------------------
     Non-local corr. energy    =       0.13617533 Ry
     -----------------------------------------------


     total cpu time spent up to now is      118.8 secs

     total energy              =     -45.02469712 Ry
     Harris-Foulkes estimate   =     -45.02469639 Ry
     estimated scf accuracy    <       0.00002767 Ry

     iteration # 14     ecut=    62.47 Ry     beta=0.33
     Davidson diagonalization with overlap
     ethr =  1.88E-07,  avg # of iterations =  1.0

     negative rho (up, down):  1.599E-03 0.000E+00


     -----------------------------------------------
     Non-local corr. energy    =       0.13617556 Ry
     -----------------------------------------------


     total cpu time spent up to now is      125.3 secs

     total energy              =     -45.02469693 Ry
     Harris-Foulkes estimate   =     -45.02469734 Ry
     estimated scf accuracy    <       0.00002858 Ry

     iteration # 15     ecut=    62.47 Ry     beta=0.33
     Davidson diagonalization with overlap
     ethr =  1.88E-07,  avg # of iterations =  1.0

     negative rho (up, down):  1.598E-03 0.000E+00


     -----------------------------------------------
     Non-local corr. energy    =       0.13617575 Ry
     -----------------------------------------------


     total cpu time spent up to now is      131.9 secs

     total energy              =     -45.02469752 Ry
     Harris-Foulkes estimate   =     -45.02469708 Ry
     estimated scf accuracy    <       0.00002544 Ry

     iteration # 16     ecut=    62.47 Ry     beta=0.33
     Davidson diagonalization with overlap
     ethr =  1.88E-07,  avg # of iterations =  1.0

     negative rho (up, down):  1.597E-03 0.000E+00


     -----------------------------------------------
     Non-local corr. energy    =       0.13617615 Ry
     -----------------------------------------------


     total cpu time spent up to now is      138.4 secs

     total energy              =     -45.02469730 Ry
     Harris-Foulkes estimate   =     -45.02469760 Ry
     estimated scf accuracy    <       0.00002612 Ry

     iteration # 17     ecut=    62.47 Ry     beta=0.33
     Davidson diagonalization with overlap
     ethr =  1.88E-07,  avg # of iterations =  1.0

     negative rho (up, down):  1.599E-03 0.000E+00


     -----------------------------------------------
     Non-local corr. energy    =       0.13617653 Ry
     -----------------------------------------------


     total cpu time spent up to now is      144.9 secs

     total energy              =     -45.02469662 Ry
     Harris-Foulkes estimate   =     -45.02469737 Ry
     estimated scf accuracy    <       0.00002390 Ry

     iteration # 18     ecut=    62.47 Ry     beta=0.33
     Davidson diagonalization with overlap
     ethr =  1.88E-07,  avg # of iterations =  1.0

     negative rho (up, down):  1.594E-03 0.000E+00


     -----------------------------------------------
     Non-local corr. energy    =       0.13617375 Ry
     -----------------------------------------------


     total cpu time spent up to now is      151.4 secs

     total energy              =     -45.02470288 Ry
     Harris-Foulkes estimate   =     -45.02469673 Ry
     estimated scf accuracy    <       0.00002162 Ry

     iteration # 19     ecut=    62.47 Ry     beta=0.33
     Davidson diagonalization with overlap
     ethr =  1.88E-07,  avg # of iterations =  1.0

     negative rho (up, down):  1.582E-03 0.000E+00


     -----------------------------------------------
     Non-local corr. energy    =       0.13617622 Ry
     -----------------------------------------------


     total cpu time spent up to now is      157.9 secs

     total energy              =     -45.02468729 Ry
     Harris-Foulkes estimate   =     -45.02470332 Ry
     estimated scf accuracy    <       0.00003687 Ry

     iteration # 20     ecut=    62.47 Ry     beta=0.33
     Davidson diagonalization with overlap
     ethr =  1.88E-07,  avg # of iterations =  3.0

     negative rho (up, down):  1.581E-03 0.000E+00


     -----------------------------------------------
     Non-local corr. energy    =       0.13617987 Ry
     -----------------------------------------------


     total cpu time spent up to now is      164.6 secs

     total energy              =     -45.02469373 Ry
     Harris-Foulkes estimate   =     -45.02469370 Ry
     estimated scf accuracy    <       0.00000047 Ry

     iteration # 21     ecut=    62.47 Ry     beta=0.33
     Davidson diagonalization with overlap
     ethr =  5.89E-09,  avg # of iterations =  1.0

     negative rho (up, down):  1.577E-03 0.000E+00


     -----------------------------------------------
     Non-local corr. energy    =       0.13617917 Ry
     -----------------------------------------------


     total cpu time spent up to now is      171.1 secs

     total energy              =     -45.02469396 Ry
     Harris-Foulkes estimate   =     -45.02469377 Ry
     estimated scf accuracy    <       0.00000013 Ry

     iteration # 22     ecut=    62.47 Ry     beta=0.33
     Davidson diagonalization with overlap
     ethr =  1.63E-09,  avg # of iterations =  3.0

     negative rho (up, down):  1.576E-03 0.000E+00


     -----------------------------------------------
     Non-local corr. energy    =       0.13617933 Ry
     -----------------------------------------------


     total cpu time spent up to now is      177.9 secs

     total energy              =     -45.02469401 Ry
     Harris-Foulkes estimate   =     -45.02469404 Ry
     estimated scf accuracy    <       0.00000036 Ry

     iteration # 23     ecut=    62.47 Ry     beta=0.33
     Davidson diagonalization with overlap
     ethr =  1.63E-09,  avg # of iterations =  1.0

     negative rho (up, down):  1.576E-03 0.000E+00


     -----------------------------------------------
     Non-local corr. energy    =       0.13617946 Ry
     -----------------------------------------------


     total cpu time spent up to now is      184.4 secs

     total energy              =     -45.02469390 Ry
     Harris-Foulkes estimate   =     -45.02469401 Ry
     estimated scf accuracy    <       0.00000034 Ry

     iteration # 24     ecut=    62.47 Ry     beta=0.33
     Davidson diagonalization with overlap
     ethr =  1.63E-09,  avg # of iterations =  1.0

     negative rho (up, down):  1.574E-03 0.000E+00


     -----------------------------------------------
     Non-local corr. energy    =       0.13617953 Ry
     -----------------------------------------------


     total cpu time spent up to now is      190.9 secs

     total energy              =     -45.02469385 Ry
     Harris-Foulkes estimate   =     -45.02469390 Ry
     estimated scf accuracy    <       0.00000021 Ry

     iteration # 25     ecut=    62.47 Ry     beta=0.33
     Davidson diagonalization with overlap
     ethr =  1.63E-09,  avg # of iterations =  1.0

     negative rho (up, down):  1.572E-03 0.000E+00


     -----------------------------------------------
     Non-local corr. energy    =       0.13617857 Ry
     -----------------------------------------------


     total cpu time spent up to now is      197.5 secs

     total energy              =     -45.02469390 Ry
     Harris-Foulkes estimate   =     -45.02469386 Ry
     estimated scf accuracy    <       0.00000011 Ry

     iteration # 26     ecut=    62.47 Ry     beta=0.33
     Davidson diagonalization with overlap
     ethr =  1.42E-09,  avg # of iterations =  1.0

     negative rho (up, down):  1.570E-03 0.000E+00


     -----------------------------------------------
     Non-local corr. energy    =       0.13617844 Ry
     -----------------------------------------------


     total cpu time spent up to now is      204.0 secs

     total energy              =     -45.02469386 Ry
     Harris-Foulkes estimate   =     -45.02469390 Ry
     estimated scf accuracy    <       0.00000008 Ry

     iteration # 27     ecut=    62.47 Ry     beta=0.33
     Davidson diagonalization with overlap
     ethr =  1.04E-09,  avg # of iterations =  1.0

     negative rho (up, down):  1.572E-03 0.000E+00


     -----------------------------------------------
     Non-local corr. energy    =       0.13617874 Ry
     -----------------------------------------------


     total cpu time spent up to now is      210.5 secs

     total energy              =     -45.02469389 Ry
     Harris-Foulkes estimate   =     -45.02469386 Ry
     estimated scf accuracy    <       0.00000004 Ry

     iteration # 28     ecut=    62.47 Ry     beta=0.33
     Davidson diagonalization with overlap
     ethr =  5.06E-10,  avg # of iterations =  3.0

     negative rho (up, down):  1.572E-03 0.000E+00


     -----------------------------------------------
     Non-local corr. energy    =       0.13617874 Ry
     -----------------------------------------------


     total cpu time spent up to now is      217.2 secs

     total energy              =     -45.02469389 Ry
     Harris-Foulkes estimate   =     -45.02469390 Ry
     estimated scf accuracy    <       0.00000003 Ry

     iteration # 29     ecut=    62.47 Ry     beta=0.33
     Davidson diagonalization with overlap
     ethr =  3.60E-10,  avg # of iterations =  1.0

     negative rho (up, down):  1.572E-03 0.000E+00


     -----------------------------------------------
     Non-local corr. energy    =       0.13617880 Ry
     -----------------------------------------------


     total cpu time spent up to now is      223.7 secs

     total energy              =     -45.02469384 Ry
     Harris-Foulkes estimate   =     -45.02469389 Ry
     estimated scf accuracy    <       0.00000002 Ry

     iteration # 30     ecut=    62.47 Ry     beta=0.33
     Davidson diagonalization with overlap
     ethr =  2.19E-10,  avg # of iterations =  3.0

     negative rho (up, down):  1.572E-03 0.000E+00


     -----------------------------------------------
     Non-local corr. energy    =       0.13617880 Ry
     -----------------------------------------------


     total cpu time spent up to now is      230.4 secs

     total energy              =     -45.02469385 Ry
     Harris-Foulkes estimate   =     -45.02469385 Ry
     estimated scf accuracy    <          6.6E-09 Ry

     iteration # 31     ecut=    62.47 Ry     beta=0.33
     Davidson diagonalization with overlap
     ethr =  8.20E-11,  avg # of iterations =  3.0

     negative rho (up, down):  1.572E-03 0.000E+00


     -----------------------------------------------
     Non-local corr. energy    =       0.13617877 Ry
     -----------------------------------------------


     total cpu time spent up to now is      237.1 secs

     total energy              =     -45.02469388 Ry
     Harris-Foulkes estimate   =     -45.02469386 Ry
     estimated scf accuracy    <       0.00000001 Ry

     iteration # 32     ecut=    62.47 Ry     beta=0.33
     Davidson diagonalization with overlap
     ethr =  8.20E-11,  avg # of iterations =  3.0

     negative rho (up, down):  1.572E-03 0.000E+00


     -----------------------------------------------
     Non-local corr. energy    =       0.13617874 Ry
     -----------------------------------------------


     total cpu time spent up to now is      243.8 secs

     total energy              =     -45.02469388 Ry
     Harris-Foulkes estimate   =     -45.02469388 Ry
     estimated scf accuracy    <          3.6E-10 Ry

     iteration # 33     ecut=    62.47 Ry     beta=0.33
     Davidson diagonalization with overlap
     ethr =  4.47E-12,  avg # of iterations =  6.0

     negative rho (up, down):  1.572E-03 0.000E+00


     -----------------------------------------------
     Non-local corr. energy    =       0.13617873 Ry
     -----------------------------------------------


     total cpu time spent up to now is      250.7 secs

     total energy              =     -45.02469388 Ry
     Harris-Foulkes estimate   =     -45.02469388 Ry
     estimated scf accuracy    <          6.3E-10 Ry

     iteration # 34     ecut=    62.47 Ry     beta=0.33
     Davidson diagonalization with overlap
     ethr =  4.47E-12,  avg # of iterations =  1.0

     negative rho (up, down):  1.572E-03 0.000E+00


     -----------------------------------------------
     Non-local corr. energy    =       0.13617872 Ry
     -----------------------------------------------


     total cpu time spent up to now is      257.3 secs

     total energy              =     -45.02469386 Ry
     Harris-Foulkes estimate   =     -45.02469388 Ry
     estimated scf accuracy    <          8.0E-10 Ry

     iteration # 35     ecut=    62.47 Ry     beta=0.33
     Davidson diagonalization with overlap
     ethr =  4.47E-12,  avg # of iterations =  4.0

     negative rho (up, down):  1.572E-03 0.000E+00


     -----------------------------------------------
     Non-local corr. energy    =       0.13617869 Ry
     -----------------------------------------------


     total cpu time spent up to now is      264.1 secs

     total energy              =     -45.02469387 Ry
     Harris-Foulkes estimate   =     -45.02469387 Ry
     estimated scf accuracy    <          5.8E-09 Ry

     iteration # 36     ecut=    62.47 Ry     beta=0.33
     Davidson diagonalization with overlap
     ethr =  4.47E-12,  avg # of iterations =  3.0

     negative rho (up, down):  1.571E-03 0.000E+00


     -----------------------------------------------
     Non-local corr. energy    =       0.13617863 Ry
     -----------------------------------------------


     total cpu time spent up to now is      270.8 secs

     total energy              =     -45.02469388 Ry
     Harris-Foulkes estimate   =     -45.02469387 Ry
     estimated scf accuracy    <          3.0E-09 Ry

     iteration # 37     ecut=    62.47 Ry     beta=0.33
     Davidson diagonalization with overlap
     ethr =  4.47E-12,  avg # of iterations =  4.0

     negative rho (up, down):  1.571E-03 0.000E+00


     -----------------------------------------------
     Non-local corr. energy    =       0.13617872 Ry
     -----------------------------------------------


     total cpu time spent up to now is      277.7 secs

     total energy              =     -45.02469388 Ry
     Harris-Foulkes estimate   =     -45.02469388 Ry
     estimated scf accuracy    <          5.5E-09 Ry

     iteration # 38     ecut=    62.47 Ry     beta=0.33
     Davidson diagonalization with overlap
     ethr =  4.47E-12,  avg # of iterations =  1.0

     negative rho (up, down):  1.571E-03 0.000E+00


     -----------------------------------------------
     Non-local corr. energy    =       0.13617872 Ry
     -----------------------------------------------


     total cpu time spent up to now is      284.2 secs

     total energy              =     -45.02469388 Ry
     Harris-Foulkes estimate   =     -45.02469388 Ry
     estimated scf accuracy    <          2.9E-09 Ry

     iteration # 39     ecut=    62.47 Ry     beta=0.33
     Davidson diagonalization with overlap
     ethr =  4.47E-12,  avg # of iterations =  1.0

     negative rho (up, down):  1.571E-03 0.000E+00


     -----------------------------------------------
     Non-local corr. energy    =       0.13617872 Ry
     -----------------------------------------------


     total cpu time spent up to now is      290.7 secs

     total energy              =     -45.02469388 Ry
     Harris-Foulkes estimate   =     -45.02469388 Ry
     estimated scf accuracy    <          3.0E-09 Ry

     iteration # 40     ecut=    62.47 Ry     beta=0.33
     Davidson diagonalization with overlap
     ethr =  4.47E-12,  avg # of iterations =  1.0

     negative rho (up, down):  1.572E-03 0.000E+00


     -----------------------------------------------
     Non-local corr. energy    =       0.13617874 Ry
     -----------------------------------------------


     total cpu time spent up to now is      297.2 secs

     total energy              =     -45.02469388 Ry
     Harris-Foulkes estimate   =     -45.02469388 Ry
     estimated scf accuracy    <          2.4E-09 Ry

     iteration # 41     ecut=    62.47 Ry     beta=0.33
     Davidson diagonalization with overlap
     ethr =  4.47E-12,  avg # of iterations =  3.0

     negative rho (up, down):  1.572E-03 0.000E+00


     -----------------------------------------------
     Non-local corr. energy    =       0.13617873 Ry
     -----------------------------------------------


     total cpu time spent up to now is      304.0 secs

     total energy              =     -45.02469388 Ry
     Harris-Foulkes estimate   =     -45.02469388 Ry
     estimated scf accuracy    <          8.3E-10 Ry

     iteration # 42     ecut=    62.47 Ry     beta=0.33
     Davidson diagonalization with overlap
     ethr =  4.47E-12,  avg # of iterations =  1.0

     negative rho (up, down):  1.572E-03 0.000E+00


     -----------------------------------------------
     Non-local corr. energy    =       0.13617874 Ry
     -----------------------------------------------


     total cpu time spent up to now is      310.5 secs

     total energy              =     -45.02469388 Ry
     Harris-Foulkes estimate   =     -45.02469388 Ry
     estimated scf accuracy    <          1.3E-09 Ry

     iteration # 43     ecut=    62.47 Ry     beta=0.33
     Davidson diagonalization with overlap
     ethr =  4.47E-12,  avg # of iterations =  2.0

     negative rho (up, down):  1.572E-03 0.000E+00


     -----------------------------------------------
     Non-local corr. energy    =       0.13617878 Ry
     -----------------------------------------------


     total cpu time spent up to now is      317.2 secs

     total energy              =     -45.02469388 Ry
     Harris-Foulkes estimate   =     -45.02469388 Ry
     estimated scf accuracy    <          2.2E-09 Ry

     iteration # 44     ecut=    62.47 Ry     beta=0.33
     Davidson diagonalization with overlap
     ethr =  4.47E-12,  avg # of iterations =  1.0

     negative rho (up, down):  1.572E-03 0.000E+00


     -----------------------------------------------
     Non-local corr. energy    =       0.13617878 Ry
     -----------------------------------------------


     total cpu time spent up to now is      323.7 secs

     total energy              =     -45.02469388 Ry
     Harris-Foulkes estimate   =     -45.02469388 Ry
     estimated scf accuracy    <          1.6E-09 Ry

     iteration # 45     ecut=    62.47 Ry     beta=0.33
     Davidson diagonalization with overlap
     ethr =  4.47E-12,  avg # of iterations =  1.0

     negative rho (up, down):  1.572E-03 0.000E+00


     -----------------------------------------------
     Non-local corr. energy    =       0.13617880 Ry
     -----------------------------------------------


     total cpu time spent up to now is      330.3 secs

     total energy              =     -45.02469388 Ry
     Harris-Foulkes estimate   =     -45.02469388 Ry
     estimated scf accuracy    <          1.0E-09 Ry

     iteration # 46     ecut=    62.47 Ry     beta=0.33
     Davidson diagonalization with overlap
     ethr =  4.47E-12,  avg # of iterations =  2.0

     negative rho (up, down):  1.572E-03 0.000E+00


     -----------------------------------------------
     Non-local corr. energy    =       0.13617882 Ry
     -----------------------------------------------


     total cpu time spent up to now is      336.9 secs

     total energy              =     -45.02469387 Ry
     Harris-Foulkes estimate   =     -45.02469388 Ry
     estimated scf accuracy    <          6.2E-10 Ry

     iteration # 47     ecut=    62.47 Ry     beta=0.33
     Davidson diagonalization with overlap
     ethr =  4.47E-12,  avg # of iterations =  3.0

     negative rho (up, down):  1.572E-03 0.000E+00


     -----------------------------------------------
     Non-local corr. energy    =       0.13617882 Ry
     -----------------------------------------------


     total cpu time spent up to now is      343.6 secs

     total energy              =     -45.02469387 Ry
     Harris-Foulkes estimate   =     -45.02469387 Ry
     estimated scf accuracy    <          3.7E-11 Ry

     iteration # 48     ecut=    62.47 Ry     beta=0.33
     Davidson diagonalization with overlap
     ethr =  4.59E-13,  avg # of iterations =  1.0

     negative rho (up, down):  1.572E-03 0.000E+00


     -----------------------------------------------
     Non-local corr. energy    =       0.13617882 Ry
     -----------------------------------------------


     total cpu time spent up to now is      350.1 secs

     total energy              =     -45.02469387 Ry
     Harris-Foulkes estimate   =     -45.02469387 Ry
     estimated scf accuracy    <          5.1E-11 Ry

     iteration # 49     ecut=    62.47 Ry     beta=0.33
     Davidson diagonalization with overlap
     ethr =  4.59E-13,  avg # of iterations =  3.0

     negative rho (up, down):  1.572E-03 0.000E+00


     -----------------------------------------------
     Non-local corr. energy    =       0.13617882 Ry
     -----------------------------------------------


     total cpu time spent up to now is      356.8 secs

     total energy              =     -45.02469387 Ry
     Harris-Foulkes estimate   =     -45.02469387 Ry
     estimated scf accuracy    <          3.5E-11 Ry

     iteration # 50     ecut=    62.47 Ry     beta=0.33
     Davidson diagonalization with overlap
     ethr =  4.33E-13,  avg # of iterations =  1.0

     negative rho (up, down):  1.572E-03 0.000E+00


     -----------------------------------------------
     Non-local corr. energy    =       0.13617882 Ry
     -----------------------------------------------


     total cpu time spent up to now is      363.3 secs

     total energy              =     -45.02469387 Ry
     Harris-Foulkes estimate   =     -45.02469387 Ry
     estimated scf accuracy    <          2.3E-11 Ry

     iteration # 51     ecut=    62.47 Ry     beta=0.33
     Davidson diagonalization with overlap
     ethr =  2.86E-13,  avg # of iterations =  1.0

     negative rho (up, down):  1.572E-03 0.000E+00


     -----------------------------------------------
     Non-local corr. energy    =       0.13617882 Ry
     -----------------------------------------------


     total cpu time spent up to now is      369.7 secs

     End of self-consistent calculation

          k = 0.0000 0.0000 0.0000 (450127 PWs)   bands (ev):

   -25.6219 -13.5474  -9.6928  -7.6567  -1.4710  -0.1534  -0.0055   0.1333
     0.1428   0.1858   0.2113   0.3025   0.3139   0.4477   0.4675   0.5454
     0.5465   0.5494   0.5598   0.5767   0.5871   0.5880   0.5883   0.7560
     0.7780   0.8642   0.8802   0.9201   0.9280   0.9421   0.9551   1.0767
     1.1136   1.2059   1.2247   1.2632   1.2926   1.3846   1.4174   1.4770

     occupation numbers 
     1.0000   1.0000   1.0000   1.0000   0.0000   0.0000   0.0000   0.0000
     0.0000   0.0000   0.0000   0.0000   0.0000   0.0000   0.0000   0.0000
     0.0000   0.0000   0.0000   0.0000   0.0000   0.0000   0.0000   0.0000
     0.0000   0.0000   0.0000   0.0000   0.0000   0.0000   0.0000   0.0000
     0.0000   0.0000   0.0000   0.0000   0.0000   0.0000   0.0000   0.0000

     highest occupied, lowest unoccupied level (ev):    -7.6567   -1.4710

!    total energy              =     -45.02469387 Ry
     Harris-Foulkes estimate   =     -45.02469387 Ry
     estimated scf accuracy    <          2.6E-12 Ry

     total all-electron energy =      -153.871576 Ry

     The total energy is the sum of the following terms:

     one-electron contribution =     -68.85930860 Ry
     hartree contribution      =      36.11606619 Ry
     xc contribution           =      -9.22868863 Ry
     ewald contribution        =       7.17303113 Ry
     one-center paw contrib.   =     -10.22579396 Ry
      -> PAW hartree energy AE =      27.89626389 Ry
      -> PAW hartree energy PS =     -27.86157943 Ry
      -> PAW xc energy AE      =     -17.90379898 Ry
      -> PAW xc energy PS      =       7.64456571 Ry
      -> total E_H with PAW    =      36.15075065 Ry
      -> total E_XC with PAW   =     -19.48792190 Ry

     convergence has been achieved in  51 iterations

     negative rho (up, down):  1.572E-03 0.000E+00


     -----------------------------------------------
     Non-local corr. energy    =       0.13617882 Ry
     -----------------------------------------------


     Forces acting on atoms (cartesian axes, Ry/au):

     atom    1 type  1   force =    -0.00000107   -0.00007682    0.00004649
     atom    2 type  2   force =     0.00000091    0.00001223    0.00001174
     atom    3 type  2   force =     0.00000016    0.00006459   -0.00004729
     The non-local contrib.  to forces
     atom    1 type  1   force =     0.02125653    0.00012227    2.51674132
     atom    2 type  2   force =     0.00004819   -0.09244018   -0.06539095
     atom    3 type  2   force =    -0.00115349    0.09241873   -0.06537434
     The ionic contribution  to forces
     atom    1 type  1   force =    -0.03676477   -0.00045076   -4.35669047
     atom    2 type  2   force =    -0.00153584    3.06412232    2.17851859
     atom    3 type  2   force =     0.03830061   -3.06367156    2.17817188
     The local contribution  to forces
     atom    1 type  1   force =     0.01571166    0.00025235    1.86420588
     atom    2 type  2   force =     0.00148868   -2.97166967   -2.11311550
     atom    3 type  2   force =    -0.03714683    2.97131707   -2.11284443
     The core correction contribution to forces
     atom    1 type  1   force =    -0.00020439   -0.00000088   -0.02420800
     atom    2 type  2   force =     0.00000000    0.00000000    0.00000000
     atom    3 type  2   force =     0.00000000    0.00000000    0.00000000
     The Hubbard contrib.    to forces
     atom    1 type  1   force =     0.00000000    0.00000000    0.00000000
     atom    2 type  2   force =     0.00000000    0.00000000    0.00000000
     atom    3 type  2   force =     0.00000000    0.00000000    0.00000000
     The SCF correction term to forces
     atom    1 type  1   force =     0.00000002    0.00000016   -0.00000224
     atom    2 type  2   force =     0.00000000   -0.00000028   -0.00000040
     atom    3 type  2   force =     0.00000000    0.00000030   -0.00000040

     Total force =     0.000121     Total SCF correction =     0.000002

     Writing output data file H2O_IR.save
 
     init_run     :     44.46s CPU     23.68s WALL (       1 calls)
     electrons    :    671.06s CPU    345.08s WALL (       1 calls)
     forces       :     15.66s CPU      7.57s WALL (       1 calls)

     Called by init_run:
     wfcinit      :      0.71s CPU      0.39s WALL (       1 calls)
     wfcinit:atom :      0.00s CPU      0.00s WALL (       1 calls)
     wfcinit:wfcr :      0.68s CPU      0.37s WALL (       1 calls)
     potinit      :     14.06s CPU      7.02s WALL (       1 calls)

     Called by electrons:
     c_bands      :     93.72s CPU     49.96s WALL (      51 calls)
     sum_band     :     34.09s CPU     17.02s WALL (      51 calls)
     v_of_rho     :    520.82s CPU    266.43s WALL (      52 calls)
     v_h          :     10.44s CPU      3.48s WALL (      52 calls)
     v_xc         :    520.39s CPU    267.97s WALL (      53 calls)
     newd         :     11.86s CPU      7.31s WALL (      52 calls)
     PAW_pot      :      3.86s CPU      1.83s WALL (      52 calls)
     mix_rho      :     10.29s CPU      5.18s WALL (      51 calls)

     Called by c_bands:
     init_us_2    :      0.10s CPU      0.09s WALL (     103 calls)
     cegterg      :     92.56s CPU     49.81s WALL (      51 calls)

     Called by sum_band:
     sum_band:bec :      0.00s CPU      0.00s WALL (      51 calls)
     addusdens    :      6.40s CPU      4.19s WALL (      51 calls)

     Called by *egterg:
     h_psi        :     67.45s CPU     34.28s WALL (     189 calls)
     s_psi        :      0.04s CPU      0.04s WALL (     189 calls)
     g_psi        :      0.02s CPU      0.02s WALL (     137 calls)
     cdiaghg      :      9.81s CPU      6.08s WALL (     188 calls)
     cegterg:over :      2.63s CPU      1.98s WALL (     137 calls)
     cegterg:upda :      0.68s CPU      0.68s WALL (     137 calls)
     cegterg:last :      0.28s CPU      0.28s WALL (      55 calls)
     cdiaghg:chol :      0.18s CPU      0.18s WALL (     188 calls)
     cdiaghg:inve :      0.12s CPU      0.12s WALL (     188 calls)
     cdiaghg:para :      0.14s CPU      0.14s WALL (     376 calls)

     Called by h_psi:
     h_psi:pot    :     67.39s CPU     34.22s WALL (     189 calls)
     h_psi:calbec :      0.19s CPU      0.14s WALL (     189 calls)
     vloc_psi     :     67.14s CPU     34.03s WALL (     189 calls)
     add_vuspsi   :      0.04s CPU      0.05s WALL (     189 calls)

     General routines
     calbec       :      0.25s CPU      0.20s WALL (     244 calls)
     fft          :    274.61s CPU    139.75s WALL (    3489 calls)
     ffts         :      1.74s CPU      0.73s WALL (     103 calls)
     fftw         :     76.41s CPU     37.07s WALL (   11446 calls)
     interpolate  :      7.97s CPU      4.92s WALL (     103 calls)
 
     Parallel routines
     fft_scatter  :    225.17s CPU    111.95s WALL (   15038 calls)

     PAW routines
     PAW_pot      :      3.86s CPU      1.83s WALL (      52 calls)
 
     PWSCF        : 12m17.61s CPU     6m21.85s WALL

 
   This run was terminated on:  14:49:38   9Feb2026            

=------------------------------------------------------------------------------=
   JOB DONE.
=------------------------------------------------------------------------------=
