
     Program PWSCF v.6.1 starts on 10Feb2026 at 22:21:39 

     This program is part of the open-source Quantum ESPRESSO suite
     for quantum simulation of materials; please cite
         "P. Giannozzi et al., J. Phys.:Condens. Matter 21 395502 (2009);
          URL http://www.quantum-espresso.org", 
     in publications or presentations arising from this work. More details at
     http://www.quantum-espresso.org/quote

     Parallel version (MPI & OpenMP), running on     480 processor cores
     Number of MPI processes:               240
     Threads/MPI process:                     2
     R & G space division:  proc/nbgrp/npool/nimage =     240
     Reading input from espresso.pwi

     Current dimensions of program PWSCF are:
     Max number of different atomic species (ntypx) = 10
     Max number of k-points (npk) =  40000
     Max angular momentum in pseudopotentials (lmaxx) =  3

     IMPORTANT: XC functional enforced from input :
     Exchange-correlation      = VDW-DF2 ( 1  4 13  0 2 0)
     Any further DFT definition will be discarded
     Please, verify this is what you really want

               file Cu.pbe-dn-kjpaw_psl.1.0.0.UPF: wavefunction(s)  4S 3D renormalized
               file C.pbe-n-kjpaw_psl.1.0.0.UPF: wavefunction(s)  2S 2P renormalized
               file O.pbe-n-kjpaw_psl.1.0.0.UPF: wavefunction(s)  2S 2P renormalized
     Message from routine iosys_1drism:
     default density from MOL file(H2O.tip5p.MOL) is used

     Subspace diagonalization in iterative solution of the eigenvalue problem:
     one sub-group per band group will be used
     ELPA distributed-memory algorithm (size of sub-group: 10* 10 procs)


     Molecule # 1 for H2O read from file:
     /work/gf93/f93007/QE/pseudo/H2O.tip5p.MOL
     Density:
         0.72794769E+02 cell^-1
         0.49533750E-02 bohr^-3
         0.55506881E+02 mol/L
         0.99997200E+00 g/cm^3
     Permittivity:
        78.355300
     Number of atoms:   5
     Atoms:
       #  atom      X (angs)      Y (angs)      Z (angs)      Q (e)         E (kcal/mol)  S (angs)
       1  O/h2o     0.00000000    0.00000000    0.00000000    0.00000000    0.16000000    3.12000000
       2  H/h2o     0.75695000    0.58588000    0.00000000    0.24100000    0.04600000    1.00000000
       3  H/h2o    -0.75695000    0.58588000    0.00000000    0.24100000    0.04600000    1.00000000
       4  L/h2o     0.00000000   -0.40415000    0.57154000   -0.24100000    0.04600000    1.80000000
       5  L/h2o     0.00000000   -0.40415000   -0.57154000   -0.24100000    0.04600000    1.80000000


     Molecule # 2 for K+ read from file:
     /work/gf93/f93007/QE/pseudo/K+.oplsaa.MOL
     Density:
         0.13114549E+01 cell^-1
         0.89238936E-04 bohr^-3
         0.10000000E+01 mol/L
         0.39098300E-01 g/cm^3
     Number of atoms:   1
     Atoms:
       #  atom      X (angs)      Y (angs)      Z (angs)      Q (e)         E (kcal/mol)  S (angs)
       1  K         0.00000000    0.00000000    0.00000000    1.00000000    0.00032800    4.93462800


     Molecule # 3 for OH- read from file:
     /work/gf93/f93007/QE/pseudo/OH-.oplsaa.MOL
     Density:
         0.13114549E+01 cell^-1
         0.89238936E-04 bohr^-3
         0.10000000E+01 mol/L
         0.17007340E-01 g/cm^3
     Number of atoms:   2
     Atoms:
       #  atom      X (angs)      Y (angs)      Z (angs)      Q (e)         E (kcal/mol)  S (angs)
       1  O/oh      0.00000000    0.00000000    0.00000000   -1.30000000    0.25000000    3.20000000
       2  H/oh      0.95300000    0.00000000    0.00000000    0.30000000    0.04600000    1.00000000


     Number of total sites:   8
     Index site -> solvent: 
       1  1  1  1  1  2  3  3
     Index site -> atom (in a solvent): 
       1  2  3  4  5  1  1  2


     Number of unique sites:   6
     Multiplicity of unique site: 
       1  2  2  1  1  1
     Index unique site -> site: 
       1:  1
       2:  2  3
       3:  4  5
       4:  6
       5:  7
       6:  8


     1D-RISM info
     ------------
     closure equation        =           KH
     temperature             =     300.0000  kelvin
     coulomb smearing radius =       2.0000  bohr
     number of solvent sites =            8
     nv * (nv + 1) / 2       =           36
     number of grids         =         8345
     maximum of R-space      =     999.8802  bohr
     maximum of G-space      =      26.2150  bohr^-1
     #R-grids in local       =           66
     #G-grids in local       =           66
     number of iterations    =       100000
     convergence threshold   =      1.0E-08
     Gaussian width of bonds =       0.2530  bohr
     size of MDIIS           =           20
     step of MDIIS           =       0.1000
     number of processes     =          128


     Radial FFT:
     number of radial grids   =         8345
     number of FFT grids      =        16689
     good number of FFT grids =           -1
     R-space grids:
       0.00000000E+00  0.11983223E+00  0.23966447E+00  0.35949670E+00  0.47932894E+00
       0.59916117E+00  0.71899341E+00  0.83882564E+00  0.95865788E+00  0.10784901E+01
       ..............  ..............  ..............  ..............  ..............
       0.99880168E+03  0.99892151E+03  0.99904134E+03  0.99916117E+03  0.99928101E+03
       0.99940084E+03  0.99952067E+03  0.99964050E+03  0.99976034E+03  0.99988017E+03
     G-space grids:
       0.00000000E+00  0.31417809E-02  0.62835618E-02  0.94253427E-02  0.12567124E-01
       0.15708904E-01  0.18850685E-01  0.21992466E-01  0.25134247E-01  0.28276028E-01
       ..............  ..............  ..............  ..............  ..............
       0.26186744E+02  0.26189886E+02  0.26193027E+02  0.26196169E+02  0.26199311E+02
       0.26202453E+02  0.26205594E+02  0.26208736E+02  0.26211878E+02  0.26215020E+02


     MPI for site:
     number of site groups     =          128
     #procs in a site group    =            1
     this proc in a site group =            0
     the root in a site group  =            0
     this site group           =            0
     inter-site group comm.    =           20
     intra-site group comm.    =            2
     total number of sites     =           36
     starting index of sites   =            1
     ending index of sites     =            1


     MPI for task:
     #procs in a task group    =          128
     this proc in a task group =            0
     the root in a task group  =            0
     task group comm.          =           20
     total number of vectors   =         8345
     starting index of vectors =            1
     ending index of vectors   =           66
     lengths of vectors        = 
        66   66   66   66   66   66   66   66   66   66
        66   66   66   66   66   66   66   66   66   66
        66   66   66   66   66   65   65   65   65   65
        65   65   65   65   65   65   65   65   65   65
        65   65   65   65   65   65   65   65   65   65
        65   65   65   65   65   65   65   65   65   65
        65   65   65   65   65   65   65   65   65   65
        65   65   65   65   65   65   65   65   65   65
        65   65   65   65   65   65   65   65   65   65
        65   65   65   65   65   65   65   65   65   65
        65   65   65   65   65   65   65   65   65   65
        65   65   65   65   65   65   65   65   65   65
        65   65   65   65   65   65   65   65
     displacement of vectors   = 
         0   66  132  198  264  330  396  462  528  594
       660  726  792  858  924  990 1056 1122 1188 1254
      1320 1386 1452 1518 1584 1650 1715 1780 1845 1910
      1975 2040 2105 2170 2235 2300 2365 2430 2495 2560
      2625 2690 2755 2820 2885 2950 3015 3080 3145 3210
      3275 3340 3405 3470 3535 3600 3665 3730 3795 3860
      3925 3990 4055 4120 4185 4250 4315 4380 4445 4510
      4575 4640 4705 4770 4835 4900 4965 5030 5095 5160
      5225 5290 5355 5420 5485 5550 5615 5680 5745 5810
      5875 5940 6005 6070 6135 6200 6265 6330 6395 6460
      6525 6590 6655 6720 6785 6850 6915 6980 7045 7110
      7175 7240 7305 7370 7435 7500 7565 7630 7695 7760
      7825 7890 7955 8020 8085 8150 8215 8280


     Correlation function is read from file


     1D-RISM Calculation

     iter. #     1  RMS(g-h-1)= 9.995E-09  nbox=  0  T=  300.00K

     End of 1D-RISM calculation


     convergence has been achieved in     1 iterations


     Chemical potential of solvation

     H2O        H2O        Closure      0.106068E+01 kcal/mol
                           GaussFluct  -0.737993E+01 kcal/mol

                K+         Closure     -0.288345E+00 kcal/mol
                           GaussFluct  -0.358438E+00 kcal/mol

                OH-        Closure     -0.764259E+00 kcal/mol
                           GaussFluct  -0.855991E+00 kcal/mol

                Total      Closure      0.808077E-02 kcal/mol
                           GaussFluct  -0.859435E+01 kcal/mol

     K+         H2O        Closure     -0.160051E+02 kcal/mol
                           GaussFluct  -0.198958E+02 kcal/mol

                K+         Closure      0.351561E+06 kcal/mol
                           GaussFluct   0.351561E+06 kcal/mol

                OH-        Closure     -0.351612E+06 kcal/mol
                           GaussFluct  -0.351612E+06 kcal/mol

                Total      Closure     -0.668098E+02 kcal/mol
                           GaussFluct  -0.707592E+02 kcal/mol

     OH-        H2O        Closure     -0.424217E+02 kcal/mol
                           GaussFluct  -0.475134E+02 kcal/mol

                K+         Closure     -0.351612E+06 kcal/mol
                           GaussFluct  -0.351612E+06 kcal/mol

                OH-        Closure      0.351561E+06 kcal/mol
                           GaussFluct   0.351561E+06 kcal/mol

                Total      Closure     -0.934347E+02 kcal/mol
                           GaussFluct  -0.986502E+02 kcal/mol

 
     Parallelization info
     --------------------
     sticks:   dense  smooth     PW     G-vecs:    dense   smooth      PW
     Min          40      16      4                16136     4064     568
     Max          41      17      5                16171     4100     615
     Sum        9661    3865   1057              3875677   980529  140539
 

     Title: 
     Cu-vib                                                                     


     bravais-lattice index     =            0
     lattice parameter (alat)  =      14.9832  a.u.
     unit-cell volume          =   14695.9939 (a.u.)^3
     number of atoms/cell      =           38
     number of atomic types    =            3
     number of electrons       =       406.00
     number of Kohn-Sham states=          244
     kinetic-energy cutoff     =      62.4738  Ry
     charge density cutoff     =     624.7385  Ry
     convergence threshold     =      7.3E-12
     mixing beta               =       0.3333
     number of iterations used =           12  plain     mixing
     Exchange-correlation      = VDW-DF2 ( 1  4 13  0 2 0)

     Effective Screening Medium Method
     =================================
     Boundary Conditions: Vacuum-Slab-Vacuum
     total charge in unit cell        =   0.0000
     grid points for fit at edges     =        4 
 

     celldm(1)=  14.983209  celldm(2)=   0.000000  celldm(3)=   0.000000
     celldm(4)=   0.000000  celldm(5)=   0.000000  celldm(6)=   0.000000

     crystal axes: (cart. coord. in units of alat)
               a(1) = (   1.000000   0.000000   0.000000 )  
               a(2) = (   0.500000   0.866025   0.000000 )  
               a(3) = (   0.000000   0.000000   5.044917 )  

     reciprocal axes: (cart. coord. in units 2 pi/alat)
               b(1) = (  1.000000 -0.577351  0.000000 )  
               b(2) = (  0.000000  1.154701  0.000000 )  
               b(3) = (  0.000000  0.000000  0.198219 )  


     PseudoPot. # 1 for Cu read from file:
     /work/gf93/f93007/QE/pseudo/Cu.pbe-dn-kjpaw_psl.1.0.0.UPF
     MD5 check sum: 67c40f9e1593dc2d139023e70404cc2a
     Pseudo is Projector augmented-wave + core cor, Zval = 11.0
     Generated using "atomic" code by A. Dal Corso  v.6.1 svn rev. 13369
     Shape of augmentation charge: PSQ
     Using radial grid of 1199 points,  6 beta functions with: 
                l(1) =   0
                l(2) =   0
                l(3) =   1
                l(4) =   1
                l(5) =   2
                l(6) =   2
     Q(r) pseudized with 0 coefficients 


     PseudoPot. # 2 for  C read from file:
     /work/gf93/f93007/QE/pseudo/C.pbe-n-kjpaw_psl.1.0.0.UPF
     MD5 check sum: 92a742b3ac0ce1af44b5aa3f9352ca21
     Pseudo is Projector augmented-wave + core cor, Zval =  4.0
     Generated using "atomic" code by A. Dal Corso  v.6.1 svn rev. 13369
     Shape of augmentation charge: PSQ
     Using radial grid of 1073 points,  4 beta functions with: 
                l(1) =   0
                l(2) =   0
                l(3) =   1
                l(4) =   1
     Q(r) pseudized with 0 coefficients 


     PseudoPot. # 3 for  O read from file:
     /work/gf93/f93007/QE/pseudo/O.pbe-n-kjpaw_psl.1.0.0.UPF
     MD5 check sum: c61d840054b6bba219e553541e327118
     Pseudo is Projector augmented-wave + core cor, Zval =  6.0
     Generated using "atomic" code by A. Dal Corso  v.6.1 svn rev. 13369
     Shape of augmentation charge: PSQ
     Using radial grid of 1095 points,  4 beta functions with: 
                l(1) =   0
                l(2) =   0
                l(3) =   1
                l(4) =   1
     Q(r) pseudized with 0 coefficients 


     vdW kernel table read from file vdW_kernel_table
     MD5 check sum: 6d69797d2e858e93e031fb7d16d30e50

     atomic species   valence    mass     pseudopotential
        Cu            11.00    63.54600     Cu( 1.00)
        C              4.00    12.01100      C( 1.00)
        O              6.00    15.99900      O( 1.00)

     No symmetry found


                                    s                        frac. trans.

      isym =  1     identity                                     

 cryst.   s( 1) = (     1          0          0      )
                  (     0          1          0      )
                  (     0          0          1      )

 cart.    s( 1) = (  1.0000000  0.0000000  0.0000000 )
                  (  0.0000000  1.0000000  0.0000000 )
                  (  0.0000000  0.0000000  1.0000000 )


   Cartesian axes

     site n.     atom                  positions (alat units)
         1           Cu  tau(   1) = (   0.0000000   0.0000000  -0.8248888  )
         2           Cu  tau(   2) = (   0.3333333   0.0000000  -0.8248888  )
         3           Cu  tau(   3) = (   0.6666667   0.0000000  -0.8248888  )
         4           Cu  tau(   4) = (   0.1666667   0.2886751  -0.8248888  )
         5           Cu  tau(   5) = (   0.5000000   0.2886751  -0.8248888  )
         6           Cu  tau(   6) = (   0.8333333   0.2886751  -0.8248888  )
         7           Cu  tau(   7) = (   0.3333333   0.5773503  -0.8248888  )
         8           Cu  tau(   8) = (   0.6666667   0.5773503  -0.8248888  )
         9           Cu  tau(   9) = (   1.0000000   0.5773503  -0.8248888  )
        10           Cu  tau(  10) = (   0.1679527   0.0969677  -0.5550278  )
        11           Cu  tau(  11) = (   0.5000001   0.0963555  -0.5546924  )
        12           Cu  tau(  12) = (   0.8320475   0.0969677  -0.5550278  )
        13           Cu  tau(  13) = (   0.3334463   0.3848350  -0.5546924  )
        14           Cu  tau(  14) = (   0.6665540   0.3848351  -0.5546924  )
        15           Cu  tau(  15) = (   1.0000000   0.3851225  -0.5554971  )
        16           Cu  tau(  16) = (   0.5000002   0.6720902  -0.5550277  )
        17           Cu  tau(  17) = (   0.8335259   0.6734639  -0.5554970  )
        18           Cu  tau(  18) = (   1.1664742   0.6734639  -0.5554970  )
        19           Cu  tau(  19) = (   0.0000002   0.1919045  -0.2895402  )
        20           Cu  tau(  20) = (   0.3359748   0.1939752  -0.2811846  )
        21           Cu  tau(  21) = (   0.6640256   0.1939752  -0.2811846  )
        22           Cu  tau(  22) = (   0.1667941   0.4810516  -0.2872685  )
        23           Cu  tau(  23) = (   0.5000002   0.4780753  -0.2811846  )
        24           Cu  tau(  24) = (   0.8332061   0.4810517  -0.2872684  )
        25           Cu  tau(  25) = (   0.3338062   0.7700731  -0.2895404  )
        26           Cu  tau(  26) = (   0.6661942   0.7700731  -0.2895403  )
        27           Cu  tau(  27) = (   1.0000001   0.7699472  -0.2872685  )
        28           Cu  tau(  28) = (   0.0000000   0.0000002  -0.0207473  )
        29           Cu  tau(  29) = (   0.3317716  -0.0034666  -0.0198287  )
        30           Cu  tau(  30) = (   0.6682285  -0.0034665  -0.0198288  )
        31           Cu  tau(  31) = (   0.1628835   0.2890560  -0.0198289  )
        32           Cu  tau(  32) = (   0.5000001   0.2886752   0.0000000  )
        33           Cu  tau(  33) = (   0.8371164   0.2890560  -0.0198289  )
        34           Cu  tau(  34) = (   0.3311120   0.5804359  -0.0198289  )
        35           Cu  tau(  35) = (   0.6688881   0.5804359  -0.0198288  )
        36           Cu  tau(  36) = (   1.0000000   0.5773501  -0.0191733  )
        37           C   tau(  37) = (   0.4987382   0.2886747   0.2397149  )
        38           O   tau(  38) = (   0.4999989   0.2886744   0.3848034  )

   Crystallographic axes

     site n.     atom                  positions (cryst. coord.)
         1           Cu  tau(   1) = (  0.0000000  0.0000000 -0.1635089  )
         2           Cu  tau(   2) = (  0.3333333  0.0000000 -0.1635089  )
         3           Cu  tau(   3) = (  0.6666667  0.0000000 -0.1635089  )
         4           Cu  tau(   4) = ( -0.0000001  0.3333335 -0.1635089  )
         5           Cu  tau(   5) = (  0.3333333  0.3333335 -0.1635089  )
         6           Cu  tau(   6) = (  0.6666666  0.3333335 -0.1635089  )
         7           Cu  tau(   7) = ( -0.0000002  0.6666670 -0.1635089  )
         8           Cu  tau(   8) = (  0.3333332  0.6666670 -0.1635089  )
         9           Cu  tau(   9) = (  0.6666665  0.6666670 -0.1635089  )
        10           Cu  tau(  10) = (  0.1119684  0.1119687 -0.1100172  )
        11           Cu  tau(  11) = (  0.4443691  0.1112618 -0.1099508  )
        12           Cu  tau(  12) = (  0.7760631  0.1119687 -0.1100172  )
        13           Cu  tau(  13) = (  0.1112615  0.4443694 -0.1099508  )
        14           Cu  tau(  14) = (  0.4443692  0.4443695 -0.1099507  )
        15           Cu  tau(  15) = (  0.7776494  0.4447013 -0.1101102  )
        16           Cu  tau(  16) = (  0.1119685  0.7760633 -0.1100172  )
        17           Cu  tau(  17) = (  0.4447012  0.7776495 -0.1101102  )
        18           Cu  tau(  18) = (  0.7776494  0.7776495 -0.1101102  )
        19           Cu  tau(  19) = ( -0.1107960  0.2215923 -0.0573925  )
        20           Cu  tau(  20) = (  0.2239831  0.2239834 -0.0557362  )
        21           Cu  tau(  21) = (  0.5520338  0.2239834 -0.0557362  )
        22           Cu  tau(  22) = ( -0.1109413  0.5554709 -0.0569422  )
        23           Cu  tau(  23) = (  0.2239831  0.5520341 -0.0557362  )
        24           Cu  tau(  24) = (  0.5554707  0.5554709 -0.0569421  )
        25           Cu  tau(  25) = ( -0.1107959  0.8892042 -0.0573925  )
        26           Cu  tau(  26) = (  0.2215921  0.8892042 -0.0573925  )
        27           Cu  tau(  27) = (  0.5554707  0.8890589 -0.0569422  )
        28           Cu  tau(  28) = ( -0.0000001  0.0000002 -0.0041125  )
        29           Cu  tau(  29) = (  0.3337730 -0.0040029 -0.0039304  )
        30           Cu  tau(  30) = (  0.6702299 -0.0040028 -0.0039305  )
        31           Cu  tau(  31) = ( -0.0040031  0.3337733 -0.0039305  )
        32           Cu  tau(  32) = (  0.3333333  0.3333336  0.0000000  )
        33           Cu  tau(  33) = (  0.6702298  0.3337733 -0.0039305  )
        34           Cu  tau(  34) = ( -0.0040030  0.6702300 -0.0039305  )
        35           Cu  tau(  35) = (  0.3337731  0.6702300 -0.0039305  )
        36           Cu  tau(  36) = (  0.6666666  0.6666667 -0.0038005  )
        37           C   tau(  37) = (  0.3320717  0.3333330  0.0475161  )
        38           O   tau(  38) = (  0.3333326  0.3333326  0.0762755  )

     number of k points=    34  Marzari-Vanderbilt smearing, width (Ry)=  0.0073
                       cart. coord. in units 2pi/alat
        k(    1) = (   0.0000000   0.0000000   0.0000000), wk =   0.0312500
        k(    2) = (   0.0000000   0.1443376   0.0000000), wk =   0.0625000
        k(    3) = (   0.0000000   0.2886753   0.0000000), wk =   0.0625000
        k(    4) = (   0.0000000   0.4330129   0.0000000), wk =   0.0625000
        k(    5) = (   0.0000000  -0.5773505   0.0000000), wk =   0.0312500
        k(    6) = (   0.1250000  -0.0721688   0.0000000), wk =   0.0625000
        k(    7) = (   0.1250000   0.0721688   0.0000000), wk =   0.0625000
        k(    8) = (   0.1250000   0.2165065   0.0000000), wk =   0.0625000
        k(    9) = (   0.1250000   0.3608441   0.0000000), wk =   0.0625000
        k(   10) = (   0.1250000  -0.6495194   0.0000000), wk =   0.0625000
        k(   11) = (   0.1250000  -0.5051817   0.0000000), wk =   0.0625000
        k(   12) = (   0.1250000  -0.3608441   0.0000000), wk =   0.0625000
        k(   13) = (   0.1250000  -0.2165065   0.0000000), wk =   0.0625000
        k(   14) = (   0.2500000  -0.1443376   0.0000000), wk =   0.0625000
        k(   15) = (   0.2500000   0.0000000   0.0000000), wk =   0.0625000
        k(   16) = (   0.2500000   0.1443376   0.0000000), wk =   0.0625000
        k(   17) = (   0.2500000   0.2886753   0.0000000), wk =   0.0625000
        k(   18) = (   0.2500000  -0.7216882   0.0000000), wk =   0.0625000
        k(   19) = (   0.2500000  -0.5773505   0.0000000), wk =   0.0625000
        k(   20) = (   0.2500000  -0.4330129   0.0000000), wk =   0.0625000
        k(   21) = (   0.2500000  -0.2886753   0.0000000), wk =   0.0625000
        k(   22) = (   0.3750000  -0.2165065   0.0000000), wk =   0.0625000
        k(   23) = (   0.3750000  -0.0721688   0.0000000), wk =   0.0625000
        k(   24) = (   0.3750000   0.0721688   0.0000000), wk =   0.0625000
        k(   25) = (   0.3750000   0.2165065   0.0000000), wk =   0.0625000
        k(   26) = (   0.3750000  -0.7938570   0.0000000), wk =   0.0625000
        k(   27) = (   0.3750000  -0.6495194   0.0000000), wk =   0.0625000
        k(   28) = (   0.3750000  -0.5051817   0.0000000), wk =   0.0625000
        k(   29) = (   0.3750000  -0.3608441   0.0000000), wk =   0.0625000
        k(   30) = (  -0.5000000   0.2886753   0.0000000), wk =   0.0312500
        k(   31) = (  -0.5000000   0.4330129   0.0000000), wk =   0.0625000
        k(   32) = (  -0.5000000   0.5773505   0.0000000), wk =   0.0625000
        k(   33) = (  -0.5000000   0.7216882   0.0000000), wk =   0.0625000
        k(   34) = (  -0.5000000  -0.2886753   0.0000000), wk =   0.0312500

                       cryst. coord.
        k(    1) = (   0.0000000   0.0000000   0.0000000), wk =   0.0312500
        k(    2) = (   0.0000000   0.1250000   0.0000000), wk =   0.0625000
        k(    3) = (   0.0000000   0.2500000   0.0000000), wk =   0.0625000
        k(    4) = (   0.0000000   0.3750000   0.0000000), wk =   0.0625000
        k(    5) = (   0.0000000  -0.5000000   0.0000000), wk =   0.0312500
        k(    6) = (   0.1250000   0.0000000   0.0000000), wk =   0.0625000
        k(    7) = (   0.1250000   0.1250000   0.0000000), wk =   0.0625000
        k(    8) = (   0.1250000   0.2500000   0.0000000), wk =   0.0625000
        k(    9) = (   0.1250000   0.3750000   0.0000000), wk =   0.0625000
        k(   10) = (   0.1250000  -0.5000000   0.0000000), wk =   0.0625000
        k(   11) = (   0.1250000  -0.3750000   0.0000000), wk =   0.0625000
        k(   12) = (   0.1250000  -0.2500000   0.0000000), wk =   0.0625000
        k(   13) = (   0.1250000  -0.1250000   0.0000000), wk =   0.0625000
        k(   14) = (   0.2500000   0.0000000   0.0000000), wk =   0.0625000
        k(   15) = (   0.2500000   0.1250000   0.0000000), wk =   0.0625000
        k(   16) = (   0.2500000   0.2500000   0.0000000), wk =   0.0625000
        k(   17) = (   0.2500000   0.3750000   0.0000000), wk =   0.0625000
        k(   18) = (   0.2500000  -0.5000000   0.0000000), wk =   0.0625000
        k(   19) = (   0.2500000  -0.3750000   0.0000000), wk =   0.0625000
        k(   20) = (   0.2500000  -0.2500000   0.0000000), wk =   0.0625000
        k(   21) = (   0.2500000  -0.1250000   0.0000000), wk =   0.0625000
        k(   22) = (   0.3750000   0.0000000   0.0000000), wk =   0.0625000
        k(   23) = (   0.3750000   0.1250000   0.0000000), wk =   0.0625000
        k(   24) = (   0.3750000   0.2500000   0.0000000), wk =   0.0625000
        k(   25) = (   0.3750000   0.3750000   0.0000000), wk =   0.0625000
        k(   26) = (   0.3750000  -0.5000000   0.0000000), wk =   0.0625000
        k(   27) = (   0.3750000  -0.3750000   0.0000000), wk =   0.0625000
        k(   28) = (   0.3750000  -0.2500000   0.0000000), wk =   0.0625000
        k(   29) = (   0.3750000  -0.1250000   0.0000000), wk =   0.0625000
        k(   30) = (  -0.5000000   0.0000000   0.0000000), wk =   0.0312500
        k(   31) = (  -0.5000000   0.1250000   0.0000000), wk =   0.0625000
        k(   32) = (  -0.5000000   0.2500000   0.0000000), wk =   0.0625000
        k(   33) = (  -0.5000000   0.3750000   0.0000000), wk =   0.0625000
        k(   34) = (  -0.5000000  -0.5000000   0.0000000), wk =   0.0312500

     Dense  grid:  3875677 G-vectors     FFT dimensions: ( 120, 120, 625)

     Smooth grid:   980529 G-vectors     FFT dimensions: (  75,  75, 384)

     Estimated max dynamical RAM per process >     140.99MB

     Estimated total allocated dynamical RAM >   33838.49MB

     Solute:
       # atom     E (kcal/mol)  S (angs)
       1  Cu      1.00000000    3.00000000    given
       2  Cu      1.00000000    3.00000000    given
       3  Cu      1.00000000    3.00000000    given
       4  Cu      1.00000000    3.00000000    given
       5  Cu      1.00000000    3.00000000    given
       6  Cu      1.00000000    3.00000000    given
       7  Cu      1.00000000    3.00000000    given
       8  Cu      1.00000000    3.00000000    given
       9  Cu      1.00000000    3.00000000    given
      10  Cu      1.00000000    3.00000000    given
      11  Cu      1.00000000    3.00000000    given
      12  Cu      1.00000000    3.00000000    given
      13  Cu      1.00000000    3.00000000    given
      14  Cu      1.00000000    3.00000000    given
      15  Cu      1.00000000    3.00000000    given
      16  Cu      1.00000000    3.00000000    given
      17  Cu      1.00000000    3.00000000    given
      18  Cu      1.00000000    3.00000000    given
      19  Cu      1.00000000    3.00000000    given
      20  Cu      1.00000000    3.00000000    given
      21  Cu      1.00000000    3.00000000    given
      22  Cu      1.00000000    3.00000000    given
      23  Cu      1.00000000    3.00000000    given
      24  Cu      1.00000000    3.00000000    given
      25  Cu      1.00000000    3.00000000    given
      26  Cu      1.00000000    3.00000000    given
      27  Cu      1.00000000    3.00000000    given
      28  Cu      1.00000000    3.00000000    given
      29  Cu      1.00000000    3.00000000    given
      30  Cu      1.00000000    3.00000000    given
      31  Cu      1.00000000    3.00000000    given
      32  Cu      1.00000000    3.00000000    given
      33  Cu      1.00000000    3.00000000    given
      34  Cu      1.00000000    3.00000000    given
      35  Cu      1.00000000    3.00000000    given
      36  Cu      1.00000000    3.00000000    given
      37  C       0.07000000    3.55000000    OPLS-AA
      38  O       0.17000000    3.00000000    OPLS-AA

     Wall:
       Density =    0.01000000  bohr^-3
       E       =    0.10000000  kcal/mol
       S       =    4.00000000  angs

     L.J. cutoff radius =       5.0000  S


     Laue-RISM info
     --------------
     closure equation        =           KH
     temperature             =     300.0000  kelvin
     coulomb smearing radius =       2.0000  bohr
     number of solvent sites =            6
     solvent sites           =    O/h2o   H/h2o   L/h2o       K
     solvent sites           =     O/oh    H/oh
     #R-grids in local       =        11250
     #Rz-grids (unit-cell)   =          384
     #Rz-grids (expand-cell) =          720
     #G-grids in local       =         4081
     #Gxy-grids in local     =           17
     #Gxy-shells in local    =           17
     number of iterations    =        10000
     convergence threshold   =      1.0E-06
     convergence level       =       0.8000
     size of MDIIS           =           20
     step of MDIIS           =       0.8000
     solvent cutoff          =     249.8954  Ry
     Custom grid:   980529 G-vectors     FFT dimensions: (  75,  75, 384)

     Boundary Conditions        : Vacuum-Slab-Solvent
     unit-cell (in bohr)        : [ -37.794523  37.794523]
     expand-cell (in bohr)      : [ -37.794523 103.934937]
     solvent of right (in bohr) : [  -8.267552 103.934937]
     buffer  of right (in bohr) : [ -18.109875  -8.267552]
     Gxy = 0 of right (in bohr) : [ -18.109875  82.872365]
     repulsive wall (in bohr)   : [  -Infinity -10.486273]
     reference of potential     : right-hand side
     #grids to fit at edges of unit-cell =    4
     Laue grid:     3865 Gxy-vectors     FFT dimensions: (  75,  75, 720)


     MPI for site:
     number of site groups     =            1
     #procs in a site group    =          240
     this proc in a site group =            0
     the root in a site group  =            0
     this site group           =            0
     inter-site group comm.    =           23
     intra-site group comm.    =            5
     total number of sites     =            6
     starting index of sites   =            1
     ending index of sites     =            6


     MPI for task:
     #procs in a task group    =          240
     this proc in a task group =            0
     the root in a task group  =            0
     task group comm.          =            5


     Initial potential from superposition of free atoms
     Check: negative starting charge=   -0.001648

     starting charge  405.99177, renormalised to  406.00000

     Correlation function is read from file


     negative rho (up, down):  1.648E-03 0.000E+00


     %%%%%%%%%%%%%%%%%%%%%%%%%%%%%%%%%%%%%%%%%%%%%%%%%%%%%%%%%%%%%%%%%%%%%%%%
     %                                                                      %
     % You are using vdW-DF, which was implemented by the Thonhauser group. %
     % Please cite the following two papers that made this development      %
     % possible and the two reviews that describe the various versions:     %
     %                                                                      %
     %   T. Thonhauser et al., PRL 115, 136402 (2015).                      %
     %   T. Thonhauser et al., PRB 76, 125112 (2007).                       %
     %   K. Berland et al., Rep. Prog. Phys. 78, 066501 (2015).             %
     %   D.C. Langreth et al., J. Phys.: Condens. Matter 21, 084203 (2009). %
     %                                                                      %
     %                                                                      %
     % If you are calculating the stress with vdW-DF, please also cite:     %
     %                                                                      %
     %   R. Sabatini et al., J. Phys.: Condens. Matter 24, 424209 (2012).   %
     %                                                                      %
     %%%%%%%%%%%%%%%%%%%%%%%%%%%%%%%%%%%%%%%%%%%%%%%%%%%%%%%%%%%%%%%%%%%%%%%%


     Carrying out vdW-DF run using the following parameters:
     Nqs    =  20  Npoints =  1024  r_max =  100.000
     q_mesh =  0.00001000  0.04494208  0.09755937  0.15916263
               0.23128650  0.31572767  0.41458969  0.53033537
               0.66584808  0.82450364  1.01025438  1.22772762
               1.48234092  1.78043706  2.12944203  2.53805004
               3.01644009  3.57652955  4.23227104  5.00000000


     -----------------------------------------------
     Non-local corr. energy    =      22.28442055 Ry
     -----------------------------------------------


     Laue-RISM Calculation

     convergence threshold    = 6.310E-06
     iter. #     1  RMS(g-h-1)= 5.445E-02  nbox=  0
     iter. #     2  RMS(g-h-1)= 4.179E-02  nbox=  1
     iter. #     3  RMS(g-h-1)= 2.573E-02  nbox=  2
     iter. #     4  RMS(g-h-1)= 1.061E-02  nbox=  3
     iter. #     5  RMS(g-h-1)= 9.058E-03  nbox=  4
     iter. #     6  RMS(g-h-1)= 7.464E-03  nbox=  5
     iter. #     7  RMS(g-h-1)= 6.459E-03  nbox=  6
     iter. #     8  RMS(g-h-1)= 5.832E-03  nbox=  7
     iter. #     9  RMS(g-h-1)= 5.285E-03  nbox=  8
     iter. #    10  RMS(g-h-1)= 5.000E-03  nbox=  9
     iter. #    11  RMS(g-h-1)= 4.643E-03  nbox= 10
     iter. #    12  RMS(g-h-1)= 4.310E-03  nbox= 11
     iter. #    13  RMS(g-h-1)= 4.031E-03  nbox= 12
     iter. #    14  RMS(g-h-1)= 3.891E-03  nbox= 13
     iter. #    15  RMS(g-h-1)= 3.628E-03  nbox= 14
     iter. #    16  RMS(g-h-1)= 3.331E-03  nbox= 15
     iter. #    17  RMS(g-h-1)= 2.953E-03  nbox= 16
     iter. #    18  RMS(g-h-1)= 2.747E-03  nbox= 17
     iter. #    19  RMS(g-h-1)= 2.437E-03  nbox= 18
     iter. #    20  RMS(g-h-1)= 2.169E-03  nbox= 19
     iter. #    21  RMS(g-h-1)= 1.955E-03  nbox= 20
     iter. #    22  RMS(g-h-1)= 1.845E-03  nbox= 20
     iter. #    23  RMS(g-h-1)= 1.740E-03  nbox= 20
     iter. #    24  RMS(g-h-1)= 1.628E-03  nbox= 20
     iter. #    25  RMS(g-h-1)= 1.539E-03  nbox= 20
     iter. #    26  RMS(g-h-1)= 1.485E-03  nbox= 20
     iter. #    27  RMS(g-h-1)= 1.446E-03  nbox= 20
     iter. #    28  RMS(g-h-1)= 1.396E-03  nbox= 20
     iter. #    29  RMS(g-h-1)= 1.339E-03  nbox= 20
     iter. #    30  RMS(g-h-1)= 1.309E-03  nbox= 20
     iter. #    31  RMS(g-h-1)= 1.261E-03  nbox= 20
     iter. #    32  RMS(g-h-1)= 1.234E-03  nbox= 20
     iter. #    33  RMS(g-h-1)= 1.179E-03  nbox= 20
     iter. #    34  RMS(g-h-1)= 1.148E-03  nbox= 20
     iter. #    35  RMS(g-h-1)= 1.097E-03  nbox= 20
     iter. #    36  RMS(g-h-1)= 1.073E-03  nbox= 20
     iter. #    37  RMS(g-h-1)= 1.033E-03  nbox= 20
     iter. #    38  RMS(g-h-1)= 1.013E-03  nbox= 20
     iter. #    39  RMS(g-h-1)= 9.903E-04  nbox= 20
     iter. #    40  RMS(g-h-1)= 9.740E-04  nbox= 20
     iter. #    41  RMS(g-h-1)= 9.358E-04  nbox= 20
     iter. #    42  RMS(g-h-1)= 9.404E-04  nbox=  2
     iter. #    43  RMS(g-h-1)= 9.066E-04  nbox=  3
     iter. #    44  RMS(g-h-1)= 8.853E-04  nbox=  4
     iter. #    45  RMS(g-h-1)= 8.719E-04  nbox=  5
     iter. #    46  RMS(g-h-1)= 8.644E-04  nbox=  6
     iter. #    47  RMS(g-h-1)= 8.552E-04  nbox=  7
     iter. #    48  RMS(g-h-1)= 8.394E-04  nbox=  8
     iter. #    49  RMS(g-h-1)= 8.256E-04  nbox=  9
     iter. #    50  RMS(g-h-1)= 8.114E-04  nbox= 10
     iter. #    51  RMS(g-h-1)= 8.000E-04  nbox= 11
     iter. #    52  RMS(g-h-1)= 7.892E-04  nbox= 12
     iter. #    53  RMS(g-h-1)= 7.738E-04  nbox= 13
     iter. #    54  RMS(g-h-1)= 7.580E-04  nbox= 14
     iter. #    55  RMS(g-h-1)= 7.490E-04  nbox= 15
     iter. #    56  RMS(g-h-1)= 7.407E-04  nbox= 16
     iter. #    57  RMS(g-h-1)= 7.280E-04  nbox= 17
     iter. #    58  RMS(g-h-1)= 7.238E-04  nbox=  2
     iter. #    59  RMS(g-h-1)= 7.035E-04  nbox=  3
     iter. #    60  RMS(g-h-1)= 6.864E-04  nbox=  4
     iter. #    61  RMS(g-h-1)= 6.791E-04  nbox=  5
     iter. #    62  RMS(g-h-1)= 6.618E-04  nbox=  6
     iter. #    63  RMS(g-h-1)= 6.531E-04  nbox=  7
     iter. #    64  RMS(g-h-1)= 6.353E-04  nbox=  8
     iter. #    65  RMS(g-h-1)= 6.195E-04  nbox=  9
     iter. #    66  RMS(g-h-1)= 6.041E-04  nbox= 10
     iter. #    67  RMS(g-h-1)= 6.025E-04  nbox= 11
     iter. #    68  RMS(g-h-1)= 5.822E-04  nbox= 12
     iter. #    69  RMS(g-h-1)= 5.759E-04  nbox= 13
     iter. #    70  RMS(g-h-1)= 5.641E-04  nbox= 14
     iter. #    71  RMS(g-h-1)= 5.576E-04  nbox= 15
     iter. #    72  RMS(g-h-1)= 5.475E-04  nbox= 16
     iter. #    73  RMS(g-h-1)= 5.397E-04  nbox= 17
     iter. #    74  RMS(g-h-1)= 5.370E-04  nbox=  2
     iter. #    75  RMS(g-h-1)= 5.279E-04  nbox=  3
     iter. #    76  RMS(g-h-1)= 5.195E-04  nbox=  4
     iter. #    77  RMS(g-h-1)= 5.174E-04  nbox=  5
     iter. #    78  RMS(g-h-1)= 5.053E-04  nbox=  6
     iter. #    79  RMS(g-h-1)= 4.971E-04  nbox=  7
     iter. #    80  RMS(g-h-1)= 4.833E-04  nbox=  8
     iter. #    81  RMS(g-h-1)= 4.922E-04  nbox=  9
     iter. #    82  RMS(g-h-1)= 4.672E-04  nbox= 10
     iter. #    83  RMS(g-h-1)= 4.611E-04  nbox= 11
     iter. #    84  RMS(g-h-1)= 4.495E-04  nbox= 12
     iter. #    85  RMS(g-h-1)= 4.469E-04  nbox= 13
     iter. #    86  RMS(g-h-1)= 4.379E-04  nbox= 14
     iter. #    87  RMS(g-h-1)= 4.307E-04  nbox= 15
     iter. #    88  RMS(g-h-1)= 4.233E-04  nbox= 16
     iter. #    89  RMS(g-h-1)= 4.164E-04  nbox= 17
     iter. #    90  RMS(g-h-1)= 4.132E-04  nbox=  2
     iter. #    91  RMS(g-h-1)= 4.026E-04  nbox=  3
     iter. #    92  RMS(g-h-1)= 3.895E-04  nbox=  4
     iter. #    93  RMS(g-h-1)= 3.807E-04  nbox=  5
     iter. #    94  RMS(g-h-1)= 3.685E-04  nbox=  6
     iter. #    95  RMS(g-h-1)= 3.686E-04  nbox=  7
     iter. #    96  RMS(g-h-1)= 3.572E-04  nbox=  8
     iter. #    97  RMS(g-h-1)= 3.504E-04  nbox=  9
     iter. #    98  RMS(g-h-1)= 3.437E-04  nbox= 10
     iter. #    99  RMS(g-h-1)= 3.445E-04  nbox= 11
     iter. #   100  RMS(g-h-1)= 3.357E-04  nbox= 12
     iter. #   101  RMS(g-h-1)= 3.332E-04  nbox= 13
     iter. #   102  RMS(g-h-1)= 3.283E-04  nbox= 14
     iter. #   103  RMS(g-h-1)= 3.230E-04  nbox= 15
     iter. #   104  RMS(g-h-1)= 3.177E-04  nbox= 16
     iter. #   105  RMS(g-h-1)= 3.161E-04  nbox= 17
     iter. #   106  RMS(g-h-1)= 3.144E-04  nbox=  2
     iter. #   107  RMS(g-h-1)= 3.093E-04  nbox=  3
     iter. #   108  RMS(g-h-1)= 3.040E-04  nbox=  4
     iter. #   109  RMS(g-h-1)= 2.990E-04  nbox=  5
     iter. #   110  RMS(g-h-1)= 2.950E-04  nbox=  6
     iter. #   111  RMS(g-h-1)= 2.934E-04  nbox=  7
     iter. #   112  RMS(g-h-1)= 2.904E-04  nbox=  8
     iter. #   113  RMS(g-h-1)= 2.878E-04  nbox=  9
     iter. #   114  RMS(g-h-1)= 2.856E-04  nbox= 10
     iter. #   115  RMS(g-h-1)= 2.836E-04  nbox= 11
     iter. #   116  RMS(g-h-1)= 2.869E-04  nbox= 12
     iter. #   117  RMS(g-h-1)= 2.809E-04  nbox= 13
     iter. #   118  RMS(g-h-1)= 2.800E-04  nbox= 14
     iter. #   119  RMS(g-h-1)= 2.772E-04  nbox= 15
     iter. #   120  RMS(g-h-1)= 2.743E-04  nbox= 16
     iter. #   121  RMS(g-h-1)= 2.738E-04  nbox= 17
     iter. #   122  RMS(g-h-1)= 2.728E-04  nbox=  2
     iter. #   123  RMS(g-h-1)= 2.698E-04  nbox=  3
     iter. #   124  RMS(g-h-1)= 2.669E-04  nbox=  4
     iter. #   125  RMS(g-h-1)= 2.639E-04  nbox=  5
     iter. #   126  RMS(g-h-1)= 2.615E-04  nbox=  6
     iter. #   127  RMS(g-h-1)= 2.592E-04  nbox=  7
     iter. #   128  RMS(g-h-1)= 2.576E-04  nbox=  8
     iter. #   129  RMS(g-h-1)= 2.554E-04  nbox=  9
     iter. #   130  RMS(g-h-1)= 2.529E-04  nbox= 10
     iter. #   131  RMS(g-h-1)= 2.510E-04  nbox= 11
     iter. #   132  RMS(g-h-1)= 2.488E-04  nbox= 12
     iter. #   133  RMS(g-h-1)= 2.470E-04  nbox= 13
     iter. #   134  RMS(g-h-1)= 2.460E-04  nbox= 14
     iter. #   135  RMS(g-h-1)= 2.440E-04  nbox= 15
     iter. #   136  RMS(g-h-1)= 2.419E-04  nbox= 16
     iter. #   137  RMS(g-h-1)= 2.395E-04  nbox= 17
     iter. #   138  RMS(g-h-1)= 2.389E-04  nbox=  2
     iter. #   139  RMS(g-h-1)= 2.361E-04  nbox=  3
     iter. #   140  RMS(g-h-1)= 2.334E-04  nbox=  4
     iter. #   141  RMS(g-h-1)= 2.312E-04  nbox=  5
     iter. #   142  RMS(g-h-1)= 2.296E-04  nbox=  6
     iter. #   143  RMS(g-h-1)= 2.279E-04  nbox=  7
     iter. #   144  RMS(g-h-1)= 2.256E-04  nbox=  8
     iter. #   145  RMS(g-h-1)= 2.237E-04  nbox=  9
     iter. #   146  RMS(g-h-1)= 2.216E-04  nbox= 10
     iter. #   147  RMS(g-h-1)= 2.209E-04  nbox= 11
     iter. #   148  RMS(g-h-1)= 2.188E-04  nbox= 12
     iter. #   149  RMS(g-h-1)= 2.174E-04  nbox= 13
     iter. #   150  RMS(g-h-1)= 2.160E-04  nbox= 14
     iter. #   151  RMS(g-h-1)= 2.143E-04  nbox= 15
     iter. #   152  RMS(g-h-1)= 2.157E-04  nbox= 16
     iter. #   153  RMS(g-h-1)= 2.126E-04  nbox= 17
     iter. #   154  RMS(g-h-1)= 2.129E-04  nbox=  2
     iter. #   155  RMS(g-h-1)= 2.104E-04  nbox=  3
     iter. #   156  RMS(g-h-1)= 2.091E-04  nbox=  4
     iter. #   157  RMS(g-h-1)= 2.083E-04  nbox=  5
     iter. #   158  RMS(g-h-1)= 2.068E-04  nbox=  6
     iter. #   159  RMS(g-h-1)= 2.051E-04  nbox=  7
     iter. #   160  RMS(g-h-1)= 2.035E-04  nbox=  8
     iter. #   161  RMS(g-h-1)= 2.019E-04  nbox=  9
     iter. #   162  RMS(g-h-1)= 2.004E-04  nbox= 10
     iter. #   163  RMS(g-h-1)= 1.991E-04  nbox= 11
     iter. #   164  RMS(g-h-1)= 1.984E-04  nbox= 12
     iter. #   165  RMS(g-h-1)= 1.969E-04  nbox= 13
     iter. #   166  RMS(g-h-1)= 1.955E-04  nbox= 14
     iter. #   167  RMS(g-h-1)= 1.941E-04  nbox= 15
     iter. #   168  RMS(g-h-1)= 1.925E-04  nbox= 16
     iter. #   169  RMS(g-h-1)= 1.908E-04  nbox= 17
     iter. #   170  RMS(g-h-1)= 1.904E-04  nbox=  2
     iter. #   171  RMS(g-h-1)= 1.890E-04  nbox=  3
     iter. #   172  RMS(g-h-1)= 1.879E-04  nbox=  4
     iter. #   173  RMS(g-h-1)= 1.868E-04  nbox=  5
     iter. #   174  RMS(g-h-1)= 1.862E-04  nbox=  6
     iter. #   175  RMS(g-h-1)= 1.851E-04  nbox=  7
     iter. #   176  RMS(g-h-1)= 1.840E-04  nbox=  8
     iter. #   177  RMS(g-h-1)= 1.828E-04  nbox=  9
     iter. #   178  RMS(g-h-1)= 1.812E-04  nbox= 10
     iter. #   179  RMS(g-h-1)= 1.820E-04  nbox= 11
     iter. #   180  RMS(g-h-1)= 1.793E-04  nbox= 12
     iter. #   181  RMS(g-h-1)= 1.783E-04  nbox= 13
     iter. #   182  RMS(g-h-1)= 1.766E-04  nbox= 14
     iter. #   183  RMS(g-h-1)= 1.750E-04  nbox= 15
     iter. #   184  RMS(g-h-1)= 1.742E-04  nbox= 16
     iter. #   185  RMS(g-h-1)= 1.724E-04  nbox= 17
     iter. #   186  RMS(g-h-1)= 1.719E-04  nbox=  2
     iter. #   187  RMS(g-h-1)= 1.700E-04  nbox=  3
     iter. #   188  RMS(g-h-1)= 1.687E-04  nbox=  4
     iter. #   189  RMS(g-h-1)= 1.670E-04  nbox=  5
     iter. #   190  RMS(g-h-1)= 1.677E-04  nbox=  6
     iter. #   191  RMS(g-h-1)= 1.646E-04  nbox=  7
     iter. #   192  RMS(g-h-1)= 1.633E-04  nbox=  8
     iter. #   193  RMS(g-h-1)= 1.620E-04  nbox=  9
     iter. #   194  RMS(g-h-1)= 1.604E-04  nbox= 10
     iter. #   195  RMS(g-h-1)= 1.617E-04  nbox= 11
     iter. #   196  RMS(g-h-1)= 1.578E-04  nbox= 12
     iter. #   197  RMS(g-h-1)= 1.565E-04  nbox= 13
     iter. #   198  RMS(g-h-1)= 1.548E-04  nbox= 14
     iter. #   199  RMS(g-h-1)= 1.532E-04  nbox= 15
     iter. #   200  RMS(g-h-1)= 1.516E-04  nbox= 16
     iter. #   201  RMS(g-h-1)= 1.503E-04  nbox= 17
     iter. #   202  RMS(g-h-1)= 1.497E-04  nbox=  2
     iter. #   203  RMS(g-h-1)= 1.483E-04  nbox=  3
     iter. #   204  RMS(g-h-1)= 1.469E-04  nbox=  4
     iter. #   205  RMS(g-h-1)= 1.455E-04  nbox=  5
     iter. #   206  RMS(g-h-1)= 1.446E-04  nbox=  6
     iter. #   207  RMS(g-h-1)= 1.438E-04  nbox=  7
     iter. #   208  RMS(g-h-1)= 1.427E-04  nbox=  8
     iter. #   209  RMS(g-h-1)= 1.416E-04  nbox=  9
     iter. #   210  RMS(g-h-1)= 1.404E-04  nbox= 10
     iter. #   211  RMS(g-h-1)= 1.392E-04  nbox= 11
     iter. #   212  RMS(g-h-1)= 1.376E-04  nbox= 12
     iter. #   213  RMS(g-h-1)= 1.364E-04  nbox= 13
     iter. #   214  RMS(g-h-1)= 1.351E-04  nbox= 14
     iter. #   215  RMS(g-h-1)= 1.336E-04  nbox= 15
     iter. #   216  RMS(g-h-1)= 1.322E-04  nbox= 16
     iter. #   217  RMS(g-h-1)= 1.309E-04  nbox= 17
     iter. #   218  RMS(g-h-1)= 1.307E-04  nbox=  2
     iter. #   219  RMS(g-h-1)= 1.293E-04  nbox=  3
     iter. #   220  RMS(g-h-1)= 1.280E-04  nbox=  4
     iter. #   221  RMS(g-h-1)= 1.271E-04  nbox=  5
     iter. #   222  RMS(g-h-1)= 1.262E-04  nbox=  6
     iter. #   223  RMS(g-h-1)= 1.250E-04  nbox=  7
     iter. #   224  RMS(g-h-1)= 1.235E-04  nbox=  8
     iter. #   225  RMS(g-h-1)= 1.222E-04  nbox=  9
     iter. #   226  RMS(g-h-1)= 1.206E-04  nbox= 10
     iter. #   227  RMS(g-h-1)= 1.191E-04  nbox= 11
     iter. #   228  RMS(g-h-1)= 1.178E-04  nbox= 12
     iter. #   229  RMS(g-h-1)= 1.171E-04  nbox= 13
     iter. #   230  RMS(g-h-1)= 1.157E-04  nbox= 14
     iter. #   231  RMS(g-h-1)= 1.141E-04  nbox= 15
     iter. #   232  RMS(g-h-1)= 1.126E-04  nbox= 16
     iter. #   233  RMS(g-h-1)= 1.115E-04  nbox= 17
     iter. #   234  RMS(g-h-1)= 1.109E-04  nbox=  2
     iter. #   235  RMS(g-h-1)= 1.099E-04  nbox=  3
     iter. #   236  RMS(g-h-1)= 1.085E-04  nbox=  4
     iter. #   237  RMS(g-h-1)= 1.072E-04  nbox=  5
     iter. #   238  RMS(g-h-1)= 1.066E-04  nbox=  6
     iter. #   239  RMS(g-h-1)= 1.054E-04  nbox=  7
     iter. #   240  RMS(g-h-1)= 1.042E-04  nbox=  8
     iter. #   241  RMS(g-h-1)= 1.028E-04  nbox=  9
     iter. #   242  RMS(g-h-1)= 1.013E-04  nbox= 10
     iter. #   243  RMS(g-h-1)= 1.001E-04  nbox= 11
     iter. #   244  RMS(g-h-1)= 1.005E-04  nbox= 12
     iter. #   245  RMS(g-h-1)= 9.822E-05  nbox= 13
     iter. #   246  RMS(g-h-1)= 9.743E-05  nbox= 14
     iter. #   247  RMS(g-h-1)= 9.605E-05  nbox= 15
     iter. #   248  RMS(g-h-1)= 9.486E-05  nbox= 16
     iter. #   249  RMS(g-h-1)= 9.394E-05  nbox= 17
     iter. #   250  RMS(g-h-1)= 9.332E-05  nbox=  2
     iter. #   251  RMS(g-h-1)= 9.224E-05  nbox=  3
     iter. #   252  RMS(g-h-1)= 9.096E-05  nbox=  4
     iter. #   253  RMS(g-h-1)= 8.980E-05  nbox=  5
     iter. #   254  RMS(g-h-1)= 8.886E-05  nbox=  6
     iter. #   255  RMS(g-h-1)= 8.818E-05  nbox=  7
     iter. #   256  RMS(g-h-1)= 8.690E-05  nbox=  8
     iter. #   257  RMS(g-h-1)= 8.566E-05  nbox=  9
     iter. #   258  RMS(g-h-1)= 8.447E-05  nbox= 10
     iter. #   259  RMS(g-h-1)= 8.347E-05  nbox= 11
     iter. #   260  RMS(g-h-1)= 8.262E-05  nbox= 12
     iter. #   261  RMS(g-h-1)= 8.188E-05  nbox= 13
     iter. #   262  RMS(g-h-1)= 8.056E-05  nbox= 14
     iter. #   263  RMS(g-h-1)= 7.943E-05  nbox= 15
     iter. #   264  RMS(g-h-1)= 7.863E-05  nbox= 16
     iter. #   265  RMS(g-h-1)= 7.763E-05  nbox= 17
     iter. #   266  RMS(g-h-1)= 7.729E-05  nbox=  2
     iter. #   267  RMS(g-h-1)= 7.649E-05  nbox=  3
     iter. #   268  RMS(g-h-1)= 7.588E-05  nbox=  4
     iter. #   269  RMS(g-h-1)= 7.551E-05  nbox=  5
     iter. #   270  RMS(g-h-1)= 7.503E-05  nbox=  6
     iter. #   271  RMS(g-h-1)= 7.455E-05  nbox=  7
     iter. #   272  RMS(g-h-1)= 7.383E-05  nbox=  8
     iter. #   273  RMS(g-h-1)= 7.306E-05  nbox=  9
     iter. #   274  RMS(g-h-1)= 7.225E-05  nbox= 10
     iter. #   275  RMS(g-h-1)= 7.147E-05  nbox= 11
     iter. #   276  RMS(g-h-1)= 7.095E-05  nbox= 12
     iter. #   277  RMS(g-h-1)= 7.046E-05  nbox= 13
     iter. #   278  RMS(g-h-1)= 6.977E-05  nbox= 14
     iter. #   279  RMS(g-h-1)= 6.925E-05  nbox= 15
     iter. #   280  RMS(g-h-1)= 6.868E-05  nbox= 16
     iter. #   281  RMS(g-h-1)= 6.866E-05  nbox= 17
     iter. #   282  RMS(g-h-1)= 6.856E-05  nbox=  2
     iter. #   283  RMS(g-h-1)= 6.807E-05  nbox=  3
     iter. #   284  RMS(g-h-1)= 6.762E-05  nbox=  4
     iter. #   285  RMS(g-h-1)= 6.721E-05  nbox=  5
     iter. #   286  RMS(g-h-1)= 6.676E-05  nbox=  6
     iter. #   287  RMS(g-h-1)= 6.629E-05  nbox=  7
     iter. #   288  RMS(g-h-1)= 6.609E-05  nbox=  8
     iter. #   289  RMS(g-h-1)= 6.563E-05  nbox=  9
     iter. #   290  RMS(g-h-1)= 6.522E-05  nbox= 10
     iter. #   291  RMS(g-h-1)= 6.482E-05  nbox= 11
     iter. #   292  RMS(g-h-1)= 6.451E-05  nbox= 12
     iter. #   293  RMS(g-h-1)= 6.419E-05  nbox= 13
     iter. #   294  RMS(g-h-1)= 6.399E-05  nbox= 14
     iter. #   295  RMS(g-h-1)= 6.377E-05  nbox= 15
     iter. #   296  RMS(g-h-1)= 6.345E-05  nbox= 16
     iter. #   297  RMS(g-h-1)= 6.307E-05  nbox= 17
     iter. #   298  RMS(g-h-1)= 6.313E-05  nbox=  2
     iter. #   299  RMS(g-h-1)= 6.265E-05  nbox=  3
     iter. #   300  RMS(g-h-1)= 6.231E-05  nbox=  4
     iter. #   301  RMS(g-h-1)= 6.206E-05  nbox=  5
     iter. #   302  RMS(g-h-1)= 6.185E-05  nbox=  6
     iter. #   303  RMS(g-h-1)= 6.160E-05  nbox=  7
     iter. #   304  RMS(g-h-1)= 6.131E-05  nbox=  8
     iter. #   305  RMS(g-h-1)= 6.101E-05  nbox=  9
     iter. #   306  RMS(g-h-1)= 6.064E-05  nbox= 10
     iter. #   307  RMS(g-h-1)= 6.094E-05  nbox= 11
     iter. #   308  RMS(g-h-1)= 6.016E-05  nbox= 12
     iter. #   309  RMS(g-h-1)= 5.993E-05  nbox= 13
     iter. #   310  RMS(g-h-1)= 5.967E-05  nbox= 14
     iter. #   311  RMS(g-h-1)= 5.933E-05  nbox= 15
     iter. #   312  RMS(g-h-1)= 5.941E-05  nbox= 16
     iter. #   313  RMS(g-h-1)= 5.896E-05  nbox= 17
     iter. #   314  RMS(g-h-1)= 5.893E-05  nbox=  2
     iter. #   315  RMS(g-h-1)= 5.856E-05  nbox=  3
     iter. #   316  RMS(g-h-1)= 5.830E-05  nbox=  4
     iter. #   317  RMS(g-h-1)= 5.816E-05  nbox=  5
     iter. #   318  RMS(g-h-1)= 5.803E-05  nbox=  6
     iter. #   319  RMS(g-h-1)= 5.772E-05  nbox=  7
     iter. #   320  RMS(g-h-1)= 5.793E-05  nbox=  8
     iter. #   321  RMS(g-h-1)= 5.715E-05  nbox=  9
     iter. #   322  RMS(g-h-1)= 5.723E-05  nbox= 10
     iter. #   323  RMS(g-h-1)= 5.688E-05  nbox= 11
     iter. #   324  RMS(g-h-1)= 5.673E-05  nbox= 12
     iter. #   325  RMS(g-h-1)= 5.652E-05  nbox= 13
     iter. #   326  RMS(g-h-1)= 5.631E-05  nbox= 14
     iter. #   327  RMS(g-h-1)= 5.614E-05  nbox= 15
     iter. #   328  RMS(g-h-1)= 5.599E-05  nbox= 16
     iter. #   329  RMS(g-h-1)= 5.579E-05  nbox= 17
     iter. #   330  RMS(g-h-1)= 5.570E-05  nbox=  2
     iter. #   331  RMS(g-h-1)= 5.546E-05  nbox=  3
     iter. #   332  RMS(g-h-1)= 5.512E-05  nbox=  4
     iter. #   333  RMS(g-h-1)= 5.488E-05  nbox=  5
     iter. #   334  RMS(g-h-1)= 5.462E-05  nbox=  6
     iter. #   335  RMS(g-h-1)= 5.450E-05  nbox=  7
     iter. #   336  RMS(g-h-1)= 5.426E-05  nbox=  8
     iter. #   337  RMS(g-h-1)= 5.402E-05  nbox=  9
     iter. #   338  RMS(g-h-1)= 5.379E-05  nbox= 10
     iter. #   339  RMS(g-h-1)= 5.418E-05  nbox= 11
     iter. #   340  RMS(g-h-1)= 5.346E-05  nbox= 12
     iter. #   341  RMS(g-h-1)= 5.332E-05  nbox= 13
     iter. #   342  RMS(g-h-1)= 5.303E-05  nbox= 14
     iter. #   343  RMS(g-h-1)= 5.280E-05  nbox= 15
     iter. #   344  RMS(g-h-1)= 5.272E-05  nbox= 16
     iter. #   345  RMS(g-h-1)= 5.249E-05  nbox= 17
     iter. #   346  RMS(g-h-1)= 5.239E-05  nbox=  2
     iter. #   347  RMS(g-h-1)= 5.218E-05  nbox=  3
     iter. #   348  RMS(g-h-1)= 5.194E-05  nbox=  4
     iter. #   349  RMS(g-h-1)= 5.175E-05  nbox=  5
     iter. #   350  RMS(g-h-1)= 5.163E-05  nbox=  6
     iter. #   351  RMS(g-h-1)= 5.143E-05  nbox=  7
     iter. #   352  RMS(g-h-1)= 5.126E-05  nbox=  8
     iter. #   353  RMS(g-h-1)= 5.100E-05  nbox=  9
     iter. #   354  RMS(g-h-1)= 5.083E-05  nbox= 10
     iter. #   355  RMS(g-h-1)= 5.059E-05  nbox= 11
     iter. #   356  RMS(g-h-1)= 5.078E-05  nbox= 12
     iter. #   357  RMS(g-h-1)= 5.029E-05  nbox= 13
     iter. #   358  RMS(g-h-1)= 5.013E-05  nbox= 14
     iter. #   359  RMS(g-h-1)= 4.990E-05  nbox= 15
     iter. #   360  RMS(g-h-1)= 4.972E-05  nbox= 16
     iter. #   361  RMS(g-h-1)= 4.957E-05  nbox= 17
     iter. #   362  RMS(g-h-1)= 4.950E-05  nbox=  2
     iter. #   363  RMS(g-h-1)= 4.930E-05  nbox=  3
     iter. #   364  RMS(g-h-1)= 4.914E-05  nbox=  4
     iter. #   365  RMS(g-h-1)= 4.895E-05  nbox=  5
     iter. #   366  RMS(g-h-1)= 4.877E-05  nbox=  6
     iter. #   367  RMS(g-h-1)= 4.863E-05  nbox=  7
     iter. #   368  RMS(g-h-1)= 4.855E-05  nbox=  8
     iter. #   369  RMS(g-h-1)= 4.840E-05  nbox=  9
     iter. #   370  RMS(g-h-1)= 4.827E-05  nbox= 10
     iter. #   371  RMS(g-h-1)= 4.818E-05  nbox= 11
     iter. #   372  RMS(g-h-1)= 4.810E-05  nbox= 12
     iter. #   373  RMS(g-h-1)= 4.804E-05  nbox= 13
     iter. #   374  RMS(g-h-1)= 4.798E-05  nbox= 14
     iter. #   375  RMS(g-h-1)= 4.794E-05  nbox= 15
     iter. #   376  RMS(g-h-1)= 4.787E-05  nbox= 16
     iter. #   377  RMS(g-h-1)= 4.779E-05  nbox= 17
     iter. #   378  RMS(g-h-1)= 4.776E-05  nbox=  2
     iter. #   379  RMS(g-h-1)= 4.767E-05  nbox=  3
     iter. #   380  RMS(g-h-1)= 4.754E-05  nbox=  4
     iter. #   381  RMS(g-h-1)= 4.786E-05  nbox=  5
     iter. #   382  RMS(g-h-1)= 4.732E-05  nbox=  6
     iter. #   383  RMS(g-h-1)= 4.729E-05  nbox=  7
     iter. #   384  RMS(g-h-1)= 4.717E-05  nbox=  8
     iter. #   385  RMS(g-h-1)= 4.707E-05  nbox=  9
     iter. #   386  RMS(g-h-1)= 4.696E-05  nbox= 10
     iter. #   387  RMS(g-h-1)= 4.686E-05  nbox= 11
     iter. #   388  RMS(g-h-1)= 4.679E-05  nbox= 12
     iter. #   389  RMS(g-h-1)= 4.663E-05  nbox= 13
     iter. #   390  RMS(g-h-1)= 4.650E-05  nbox= 14
     iter. #   391  RMS(g-h-1)= 4.636E-05  nbox= 15
     iter. #   392  RMS(g-h-1)= 4.623E-05  nbox= 16
     iter. #   393  RMS(g-h-1)= 4.610E-05  nbox= 17
     iter. #   394  RMS(g-h-1)= 4.606E-05  nbox=  2
     iter. #   395  RMS(g-h-1)= 4.595E-05  nbox=  3
     iter. #   396  RMS(g-h-1)= 4.580E-05  nbox=  4
     iter. #   397  RMS(g-h-1)= 4.564E-05  nbox=  5
     iter. #   398  RMS(g-h-1)= 4.550E-05  nbox=  6
     iter. #   399  RMS(g-h-1)= 4.535E-05  nbox=  7
     iter. #   400  RMS(g-h-1)= 4.522E-05  nbox=  8
     iter. #   401  RMS(g-h-1)= 4.499E-05  nbox=  9
     iter. #   402  RMS(g-h-1)= 4.479E-05  nbox= 10
     iter. #   403  RMS(g-h-1)= 4.459E-05  nbox= 11
     iter. #   404  RMS(g-h-1)= 4.435E-05  nbox= 12
     iter. #   405  RMS(g-h-1)= 4.466E-05  nbox= 13
     iter. #   406  RMS(g-h-1)= 4.405E-05  nbox= 14
     iter. #   407  RMS(g-h-1)= 4.390E-05  nbox= 15
     iter. #   408  RMS(g-h-1)= 4.368E-05  nbox= 16
     iter. #   409  RMS(g-h-1)= 4.344E-05  nbox= 17
     iter. #   410  RMS(g-h-1)= 4.335E-05  nbox=  2
     iter. #   411  RMS(g-h-1)= 4.311E-05  nbox=  3
     iter. #   412  RMS(g-h-1)= 4.286E-05  nbox=  4
     iter. #   413  RMS(g-h-1)= 4.263E-05  nbox=  5
     iter. #   414  RMS(g-h-1)= 4.247E-05  nbox=  6
     iter. #   415  RMS(g-h-1)= 4.232E-05  nbox=  7
     iter. #   416  RMS(g-h-1)= 4.212E-05  nbox=  8
     iter. #   417  RMS(g-h-1)= 4.192E-05  nbox=  9
     iter. #   418  RMS(g-h-1)= 4.173E-05  nbox= 10
     iter. #   419  RMS(g-h-1)= 4.155E-05  nbox= 11
     iter. #   420  RMS(g-h-1)= 4.149E-05  nbox= 12
     iter. #   421  RMS(g-h-1)= 4.132E-05  nbox= 13
     iter. #   422  RMS(g-h-1)= 4.116E-05  nbox= 14
     iter. #   423  RMS(g-h-1)= 4.097E-05  nbox= 15
     iter. #   424  RMS(g-h-1)= 4.079E-05  nbox= 16
     iter. #   425  RMS(g-h-1)= 4.061E-05  nbox= 17
     iter. #   426  RMS(g-h-1)= 4.057E-05  nbox=  2
     iter. #   427  RMS(g-h-1)= 4.041E-05  nbox=  3
     iter. #   428  RMS(g-h-1)= 4.026E-05  nbox=  4
     iter. #   429  RMS(g-h-1)= 4.011E-05  nbox=  5
     iter. #   430  RMS(g-h-1)= 3.999E-05  nbox=  6
     iter. #   431  RMS(g-h-1)= 3.987E-05  nbox=  7
     iter. #   432  RMS(g-h-1)= 3.973E-05  nbox=  8
     iter. #   433  RMS(g-h-1)= 3.961E-05  nbox=  9
     iter. #   434  RMS(g-h-1)= 3.946E-05  nbox= 10
     iter. #   435  RMS(g-h-1)= 3.934E-05  nbox= 11
     iter. #   436  RMS(g-h-1)= 3.919E-05  nbox= 12
     iter. #   437  RMS(g-h-1)= 3.907E-05  nbox= 13
     iter. #   438  RMS(g-h-1)= 3.902E-05  nbox= 14
     iter. #   439  RMS(g-h-1)= 3.888E-05  nbox= 15
     iter. #   440  RMS(g-h-1)= 3.875E-05  nbox= 16
     iter. #   441  RMS(g-h-1)= 3.862E-05  nbox= 17
     iter. #   442  RMS(g-h-1)= 3.859E-05  nbox=  2
     iter. #   443  RMS(g-h-1)= 3.845E-05  nbox=  3
     iter. #   444  RMS(g-h-1)= 3.832E-05  nbox=  4
     iter. #   445  RMS(g-h-1)= 3.821E-05  nbox=  5
     iter. #   446  RMS(g-h-1)= 3.806E-05  nbox=  6
     iter. #   447  RMS(g-h-1)= 3.797E-05  nbox=  7
     iter. #   448  RMS(g-h-1)= 3.783E-05  nbox=  8
     iter. #   449  RMS(g-h-1)= 3.767E-05  nbox=  9
     iter. #   450  RMS(g-h-1)= 3.750E-05  nbox= 10
     iter. #   451  RMS(g-h-1)= 3.734E-05  nbox= 11
     iter. #   452  RMS(g-h-1)= 3.720E-05  nbox= 12
     iter. #   453  RMS(g-h-1)= 3.705E-05  nbox= 13
     iter. #   454  RMS(g-h-1)= 3.695E-05  nbox= 14
     iter. #   455  RMS(g-h-1)= 3.688E-05  nbox= 15
     iter. #   456  RMS(g-h-1)= 3.676E-05  nbox= 16
     iter. #   457  RMS(g-h-1)= 3.663E-05  nbox= 17
     iter. #   458  RMS(g-h-1)= 3.659E-05  nbox=  2
     iter. #   459  RMS(g-h-1)= 3.648E-05  nbox=  3
     iter. #   460  RMS(g-h-1)= 3.636E-05  nbox=  4
     iter. #   461  RMS(g-h-1)= 3.625E-05  nbox=  5
     iter. #   462  RMS(g-h-1)= 3.615E-05  nbox=  6
     iter. #   463  RMS(g-h-1)= 3.605E-05  nbox=  7
     iter. #   464  RMS(g-h-1)= 3.599E-05  nbox=  8
     iter. #   465  RMS(g-h-1)= 3.587E-05  nbox=  9
     iter. #   466  RMS(g-h-1)= 3.574E-05  nbox= 10
     iter. #   467  RMS(g-h-1)= 3.562E-05  nbox= 11
     iter. #   468  RMS(g-h-1)= 3.547E-05  nbox= 12
     iter. #   469  RMS(g-h-1)= 3.531E-05  nbox= 13
     iter. #   470  RMS(g-h-1)= 3.530E-05  nbox= 14
     iter. #   471  RMS(g-h-1)= 3.512E-05  nbox= 15
     iter. #   472  RMS(g-h-1)= 3.497E-05  nbox= 16
     iter. #   473  RMS(g-h-1)= 3.483E-05  nbox= 17
     iter. #   474  RMS(g-h-1)= 3.480E-05  nbox=  2
     iter. #   475  RMS(g-h-1)= 3.464E-05  nbox=  3
     iter. #   476  RMS(g-h-1)= 3.450E-05  nbox=  4
     iter. #   477  RMS(g-h-1)= 3.434E-05  nbox=  5
     iter. #   478  RMS(g-h-1)= 3.432E-05  nbox=  6
     iter. #   479  RMS(g-h-1)= 3.416E-05  nbox=  7
     iter. #   480  RMS(g-h-1)= 3.404E-05  nbox=  8
     iter. #   481  RMS(g-h-1)= 3.391E-05  nbox=  9
     iter. #   482  RMS(g-h-1)= 3.379E-05  nbox= 10
     iter. #   483  RMS(g-h-1)= 3.367E-05  nbox= 11
     iter. #   484  RMS(g-h-1)= 3.355E-05  nbox= 12
     iter. #   485  RMS(g-h-1)= 3.344E-05  nbox= 13
     iter. #   486  RMS(g-h-1)= 3.329E-05  nbox= 14
     iter. #   487  RMS(g-h-1)= 3.313E-05  nbox= 15
     iter. #   488  RMS(g-h-1)= 3.292E-05  nbox= 16
     iter. #   489  RMS(g-h-1)= 3.272E-05  nbox= 17
     iter. #   490  RMS(g-h-1)= 3.268E-05  nbox=  2
     iter. #   491  RMS(g-h-1)= 3.248E-05  nbox=  3
     iter. #   492  RMS(g-h-1)= 3.232E-05  nbox=  4
     iter. #   493  RMS(g-h-1)= 3.214E-05  nbox=  5
     iter. #   494  RMS(g-h-1)= 3.206E-05  nbox=  6
     iter. #   495  RMS(g-h-1)= 3.192E-05  nbox=  7
     iter. #   496  RMS(g-h-1)= 3.177E-05  nbox=  8
     iter. #   497  RMS(g-h-1)= 3.161E-05  nbox=  9
     iter. #   498  RMS(g-h-1)= 3.144E-05  nbox= 10
     iter. #   499  RMS(g-h-1)= 3.129E-05  nbox= 11
     iter. #   500  RMS(g-h-1)= 3.115E-05  nbox= 12
     iter. #   501  RMS(g-h-1)= 3.102E-05  nbox= 13
     iter. #   502  RMS(g-h-1)= 3.094E-05  nbox= 14
     iter. #   503  RMS(g-h-1)= 3.082E-05  nbox= 15
     iter. #   504  RMS(g-h-1)= 3.068E-05  nbox= 16
     iter. #   505  RMS(g-h-1)= 3.056E-05  nbox= 17
     iter. #   506  RMS(g-h-1)= 3.053E-05  nbox=  2
     iter. #   507  RMS(g-h-1)= 3.040E-05  nbox=  3
     iter. #   508  RMS(g-h-1)= 3.031E-05  nbox=  4
     iter. #   509  RMS(g-h-1)= 3.022E-05  nbox=  5
     iter. #   510  RMS(g-h-1)= 3.013E-05  nbox=  6
     iter. #   511  RMS(g-h-1)= 3.013E-05  nbox=  7
     iter. #   512  RMS(g-h-1)= 3.005E-05  nbox=  8
     iter. #   513  RMS(g-h-1)= 2.998E-05  nbox=  9
     iter. #   514  RMS(g-h-1)= 2.992E-05  nbox= 10
     iter. #   515  RMS(g-h-1)= 2.988E-05  nbox= 11
     iter. #   516  RMS(g-h-1)= 2.984E-05  nbox= 12
     iter. #   517  RMS(g-h-1)= 2.981E-05  nbox= 13
     iter. #   518  RMS(g-h-1)= 2.978E-05  nbox= 14
     iter. #   519  RMS(g-h-1)= 2.975E-05  nbox= 15
     iter. #   520  RMS(g-h-1)= 2.970E-05  nbox= 16
     iter. #   521  RMS(g-h-1)= 2.966E-05  nbox= 17
     iter. #   522  RMS(g-h-1)= 2.964E-05  nbox=  2
     iter. #   523  RMS(g-h-1)= 2.959E-05  nbox=  3
     iter. #   524  RMS(g-h-1)= 2.955E-05  nbox=  4
     iter. #   525  RMS(g-h-1)= 2.951E-05  nbox=  5
     iter. #   526  RMS(g-h-1)= 2.947E-05  nbox=  6
     iter. #   527  RMS(g-h-1)= 2.944E-05  nbox=  7
     iter. #   528  RMS(g-h-1)= 2.941E-05  nbox=  8
     iter. #   529  RMS(g-h-1)= 2.939E-05  nbox=  9
     iter. #   530  RMS(g-h-1)= 2.934E-05  nbox= 10
     iter. #   531  RMS(g-h-1)= 2.929E-05  nbox= 11
     iter. #   532  RMS(g-h-1)= 2.925E-05  nbox= 12
     iter. #   533  RMS(g-h-1)= 2.919E-05  nbox= 13
     iter. #   534  RMS(g-h-1)= 2.914E-05  nbox= 14
     iter. #   535  RMS(g-h-1)= 2.908E-05  nbox= 15
     iter. #   536  RMS(g-h-1)= 2.904E-05  nbox= 16
     iter. #   537  RMS(g-h-1)= 2.900E-05  nbox= 17
     iter. #   538  RMS(g-h-1)= 2.898E-05  nbox=  2
     iter. #   539  RMS(g-h-1)= 2.891E-05  nbox=  3
     iter. #   540  RMS(g-h-1)= 2.885E-05  nbox=  4
     iter. #   541  RMS(g-h-1)= 2.877E-05  nbox=  5
     iter. #   542  RMS(g-h-1)= 2.869E-05  nbox=  6
     iter. #   543  RMS(g-h-1)= 2.861E-05  nbox=  7
     iter. #   544  RMS(g-h-1)= 2.856E-05  nbox=  8
     iter. #   545  RMS(g-h-1)= 2.852E-05  nbox=  9
     iter. #   546  RMS(g-h-1)= 2.844E-05  nbox= 10
     iter. #   547  RMS(g-h-1)= 2.837E-05  nbox= 11
     iter. #   548  RMS(g-h-1)= 2.829E-05  nbox= 12
     iter. #   549  RMS(g-h-1)= 2.822E-05  nbox= 13
     iter. #   550  RMS(g-h-1)= 2.814E-05  nbox= 14
     iter. #   551  RMS(g-h-1)= 2.812E-05  nbox= 15
     iter. #   552  RMS(g-h-1)= 2.802E-05  nbox= 16
     iter. #   553  RMS(g-h-1)= 2.795E-05  nbox= 17
     iter. #   554  RMS(g-h-1)= 2.793E-05  nbox=  2
     iter. #   555  RMS(g-h-1)= 2.784E-05  nbox=  3
     iter. #   556  RMS(g-h-1)= 2.776E-05  nbox=  4
     iter. #   557  RMS(g-h-1)= 2.768E-05  nbox=  5
     iter. #   558  RMS(g-h-1)= 2.761E-05  nbox=  6
     iter. #   559  RMS(g-h-1)= 2.757E-05  nbox=  7
     iter. #   560  RMS(g-h-1)= 2.753E-05  nbox=  8
     iter. #   561  RMS(g-h-1)= 2.748E-05  nbox=  9
     iter. #   562  RMS(g-h-1)= 2.742E-05  nbox= 10
     iter. #   563  RMS(g-h-1)= 2.736E-05  nbox= 11
     iter. #   564  RMS(g-h-1)= 2.729E-05  nbox= 12
     iter. #   565  RMS(g-h-1)= 2.720E-05  nbox= 13
     iter. #   566  RMS(g-h-1)= 2.711E-05  nbox= 14
     iter. #   567  RMS(g-h-1)= 2.705E-05  nbox= 15
     iter. #   568  RMS(g-h-1)= 2.698E-05  nbox= 16
     iter. #   569  RMS(g-h-1)= 2.689E-05  nbox= 17
     iter. #   570  RMS(g-h-1)= 2.688E-05  nbox=  2
     iter. #   571  RMS(g-h-1)= 2.678E-05  nbox=  3
     iter. #   572  RMS(g-h-1)= 2.669E-05  nbox=  4
     iter. #   573  RMS(g-h-1)= 2.661E-05  nbox=  5
     iter. #   574  RMS(g-h-1)= 2.653E-05  nbox=  6
     iter. #   575  RMS(g-h-1)= 2.646E-05  nbox=  7
     iter. #   576  RMS(g-h-1)= 2.641E-05  nbox=  8
     iter. #   577  RMS(g-h-1)= 2.633E-05  nbox=  9
     iter. #   578  RMS(g-h-1)= 2.625E-05  nbox= 10
     iter. #   579  RMS(g-h-1)= 2.618E-05  nbox= 11
     iter. #   580  RMS(g-h-1)= 2.611E-05  nbox= 12
     iter. #   581  RMS(g-h-1)= 2.604E-05  nbox= 13
     iter. #   582  RMS(g-h-1)= 2.598E-05  nbox= 14
     iter. #   583  RMS(g-h-1)= 2.592E-05  nbox= 15
     iter. #   584  RMS(g-h-1)= 2.588E-05  nbox= 16
     iter. #   585  RMS(g-h-1)= 2.581E-05  nbox= 17
     iter. #   586  RMS(g-h-1)= 2.579E-05  nbox=  2
     iter. #   587  RMS(g-h-1)= 2.572E-05  nbox=  3
     iter. #   588  RMS(g-h-1)= 2.565E-05  nbox=  4
     iter. #   589  RMS(g-h-1)= 2.560E-05  nbox=  5
     iter. #   590  RMS(g-h-1)= 2.553E-05  nbox=  6
     iter. #   591  RMS(g-h-1)= 2.550E-05  nbox=  7
     iter. #   592  RMS(g-h-1)= 2.547E-05  nbox=  8
     iter. #   593  RMS(g-h-1)= 2.542E-05  nbox=  9
     iter. #   594  RMS(g-h-1)= 2.537E-05  nbox= 10
     iter. #   595  RMS(g-h-1)= 2.532E-05  nbox= 11
     iter. #   596  RMS(g-h-1)= 2.526E-05  nbox= 12
     iter. #   597  RMS(g-h-1)= 2.520E-05  nbox= 13
     iter. #   598  RMS(g-h-1)= 2.514E-05  nbox= 14
     iter. #   599  RMS(g-h-1)= 2.510E-05  nbox= 15
     iter. #   600  RMS(g-h-1)= 2.505E-05  nbox= 16
     iter. #   601  RMS(g-h-1)= 2.499E-05  nbox= 17
     iter. #   602  RMS(g-h-1)= 2.498E-05  nbox=  2
     iter. #   603  RMS(g-h-1)= 2.491E-05  nbox=  3
     iter. #   604  RMS(g-h-1)= 2.484E-05  nbox=  4
     iter. #   605  RMS(g-h-1)= 2.479E-05  nbox=  5
     iter. #   606  RMS(g-h-1)= 2.473E-05  nbox=  6
     iter. #   607  RMS(g-h-1)= 2.471E-05  nbox=  7
     iter. #   608  RMS(g-h-1)= 2.466E-05  nbox=  8
     iter. #   609  RMS(g-h-1)= 2.461E-05  nbox=  9
     iter. #   610  RMS(g-h-1)= 2.456E-05  nbox= 10
     iter. #   611  RMS(g-h-1)= 2.451E-05  nbox= 11
     iter. #   612  RMS(g-h-1)= 2.445E-05  nbox= 12
     iter. #   613  RMS(g-h-1)= 2.439E-05  nbox= 13
     iter. #   614  RMS(g-h-1)= 2.432E-05  nbox= 14
     iter. #   615  RMS(g-h-1)= 2.427E-05  nbox= 15
     iter. #   616  RMS(g-h-1)= 2.422E-05  nbox= 16
     iter. #   617  RMS(g-h-1)= 2.415E-05  nbox= 17
     iter. #   618  RMS(g-h-1)= 2.413E-05  nbox=  2
     iter. #   619  RMS(g-h-1)= 2.405E-05  nbox=  3
     iter. #   620  RMS(g-h-1)= 2.397E-05  nbox=  4
     iter. #   621  RMS(g-h-1)= 2.390E-05  nbox=  5
     iter. #   622  RMS(g-h-1)= 2.384E-05  nbox=  6
     iter. #   623  RMS(g-h-1)= 2.381E-05  nbox=  7
     iter. #   624  RMS(g-h-1)= 2.374E-05  nbox=  8
     iter. #   625  RMS(g-h-1)= 2.367E-05  nbox=  9
     iter. #   626  RMS(g-h-1)= 2.358E-05  nbox= 10
     iter. #   627  RMS(g-h-1)= 2.351E-05  nbox= 11
     iter. #   628  RMS(g-h-1)= 2.341E-05  nbox= 12
     iter. #   629  RMS(g-h-1)= 2.331E-05  nbox= 13
     iter. #   630  RMS(g-h-1)= 2.327E-05  nbox= 14
     iter. #   631  RMS(g-h-1)= 2.316E-05  nbox= 15
     iter. #   632  RMS(g-h-1)= 2.305E-05  nbox= 16
     iter. #   633  RMS(g-h-1)= 2.292E-05  nbox= 17
     iter. #   634  RMS(g-h-1)= 2.289E-05  nbox=  2
     iter. #   635  RMS(g-h-1)= 2.276E-05  nbox=  3
     iter. #   636  RMS(g-h-1)= 2.265E-05  nbox=  4
     iter. #   637  RMS(g-h-1)= 2.255E-05  nbox=  5
     iter. #   638  RMS(g-h-1)= 2.249E-05  nbox=  6
     iter. #   639  RMS(g-h-1)= 2.240E-05  nbox=  7
     iter. #   640  RMS(g-h-1)= 2.228E-05  nbox=  8
     iter. #   641  RMS(g-h-1)= 2.218E-05  nbox=  9
     iter. #   642  RMS(g-h-1)= 2.207E-05  nbox= 10
     iter. #   643  RMS(g-h-1)= 2.201E-05  nbox= 11
     iter. #   644  RMS(g-h-1)= 2.191E-05  nbox= 12
     iter. #   645  RMS(g-h-1)= 2.184E-05  nbox= 13
     iter. #   646  RMS(g-h-1)= 2.173E-05  nbox= 14
     iter. #   647  RMS(g-h-1)= 2.163E-05  nbox= 15
     iter. #   648  RMS(g-h-1)= 2.153E-05  nbox= 16
     iter. #   649  RMS(g-h-1)= 2.145E-05  nbox= 17
     iter. #   650  RMS(g-h-1)= 2.141E-05  nbox=  2
     iter. #   651  RMS(g-h-1)= 2.133E-05  nbox=  3
     iter. #   652  RMS(g-h-1)= 2.125E-05  nbox=  4
     iter. #   653  RMS(g-h-1)= 2.116E-05  nbox=  5
     iter. #   654  RMS(g-h-1)= 2.111E-05  nbox=  6
     iter. #   655  RMS(g-h-1)= 2.105E-05  nbox=  7
     iter. #   656  RMS(g-h-1)= 2.100E-05  nbox=  8
     iter. #   657  RMS(g-h-1)= 2.093E-05  nbox=  9
     iter. #   658  RMS(g-h-1)= 2.085E-05  nbox= 10
     iter. #   659  RMS(g-h-1)= 2.078E-05  nbox= 11
     iter. #   660  RMS(g-h-1)= 2.071E-05  nbox= 12
     iter. #   661  RMS(g-h-1)= 2.068E-05  nbox= 13
     iter. #   662  RMS(g-h-1)= 2.060E-05  nbox= 14
     iter. #   663  RMS(g-h-1)= 2.054E-05  nbox= 15
     iter. #   664  RMS(g-h-1)= 2.046E-05  nbox= 16
     iter. #   665  RMS(g-h-1)= 2.039E-05  nbox= 17
     iter. #   666  RMS(g-h-1)= 2.038E-05  nbox=  2
     iter. #   667  RMS(g-h-1)= 2.031E-05  nbox=  3
     iter. #   668  RMS(g-h-1)= 2.024E-05  nbox=  4
     iter. #   669  RMS(g-h-1)= 2.019E-05  nbox=  5
     iter. #   670  RMS(g-h-1)= 2.012E-05  nbox=  6
     iter. #   671  RMS(g-h-1)= 2.007E-05  nbox=  7
     iter. #   672  RMS(g-h-1)= 2.003E-05  nbox=  8
     iter. #   673  RMS(g-h-1)= 1.996E-05  nbox=  9
     iter. #   674  RMS(g-h-1)= 1.988E-05  nbox= 10
     iter. #   675  RMS(g-h-1)= 1.980E-05  nbox= 11
     iter. #   676  RMS(g-h-1)= 1.971E-05  nbox= 12
     iter. #   677  RMS(g-h-1)= 1.962E-05  nbox= 13
     iter. #   678  RMS(g-h-1)= 1.952E-05  nbox= 14
     iter. #   679  RMS(g-h-1)= 1.944E-05  nbox= 15
     iter. #   680  RMS(g-h-1)= 1.937E-05  nbox= 16
     iter. #   681  RMS(g-h-1)= 1.925E-05  nbox= 17
     iter. #   682  RMS(g-h-1)= 1.922E-05  nbox=  2
     iter. #   683  RMS(g-h-1)= 1.908E-05  nbox=  3
     iter. #   684  RMS(g-h-1)= 1.897E-05  nbox=  4
     iter. #   685  RMS(g-h-1)= 1.883E-05  nbox=  5
     iter. #   686  RMS(g-h-1)= 1.871E-05  nbox=  6
     iter. #   687  RMS(g-h-1)= 1.866E-05  nbox=  7
     iter. #   688  RMS(g-h-1)= 1.852E-05  nbox=  8
     iter. #   689  RMS(g-h-1)= 1.841E-05  nbox=  9
     iter. #   690  RMS(g-h-1)= 1.823E-05  nbox= 10
     iter. #   691  RMS(g-h-1)= 1.807E-05  nbox= 11
     iter. #   692  RMS(g-h-1)= 1.792E-05  nbox= 12
     iter. #   693  RMS(g-h-1)= 1.785E-05  nbox= 13
     iter. #   694  RMS(g-h-1)= 1.770E-05  nbox= 14
     iter. #   695  RMS(g-h-1)= 1.752E-05  nbox= 15
     iter. #   696  RMS(g-h-1)= 1.737E-05  nbox= 16
     iter. #   697  RMS(g-h-1)= 1.722E-05  nbox= 17
     iter. #   698  RMS(g-h-1)= 1.719E-05  nbox=  2
     iter. #   699  RMS(g-h-1)= 1.703E-05  nbox=  3
     iter. #   700  RMS(g-h-1)= 1.689E-05  nbox=  4
     iter. #   701  RMS(g-h-1)= 1.675E-05  nbox=  5
     iter. #   702  RMS(g-h-1)= 1.660E-05  nbox=  6
     iter. #   703  RMS(g-h-1)= 1.657E-05  nbox=  7
     iter. #   704  RMS(g-h-1)= 1.640E-05  nbox=  8
     iter. #   705  RMS(g-h-1)= 1.626E-05  nbox=  9
     iter. #   706  RMS(g-h-1)= 1.610E-05  nbox= 10
     iter. #   707  RMS(g-h-1)= 1.597E-05  nbox= 11
     iter. #   708  RMS(g-h-1)= 1.582E-05  nbox= 12
     iter. #   709  RMS(g-h-1)= 1.568E-05  nbox= 13
     iter. #   710  RMS(g-h-1)= 1.557E-05  nbox= 14
     iter. #   711  RMS(g-h-1)= 1.551E-05  nbox= 15
     iter. #   712  RMS(g-h-1)= 1.536E-05  nbox= 16
     iter. #   713  RMS(g-h-1)= 1.525E-05  nbox= 17
     iter. #   714  RMS(g-h-1)= 1.521E-05  nbox=  2
     iter. #   715  RMS(g-h-1)= 1.505E-05  nbox=  3
     iter. #   716  RMS(g-h-1)= 1.493E-05  nbox=  4
     iter. #   717  RMS(g-h-1)= 1.482E-05  nbox=  5
     iter. #   718  RMS(g-h-1)= 1.468E-05  nbox=  6
     iter. #   719  RMS(g-h-1)= 1.467E-05  nbox=  7
     iter. #   720  RMS(g-h-1)= 1.452E-05  nbox=  8
     iter. #   721  RMS(g-h-1)= 1.441E-05  nbox=  9
     iter. #   722  RMS(g-h-1)= 1.428E-05  nbox= 10
     iter. #   723  RMS(g-h-1)= 1.415E-05  nbox= 11
     iter. #   724  RMS(g-h-1)= 1.403E-05  nbox= 12
     iter. #   725  RMS(g-h-1)= 1.389E-05  nbox= 13
     iter. #   726  RMS(g-h-1)= 1.383E-05  nbox= 14
     iter. #   727  RMS(g-h-1)= 1.369E-05  nbox= 15
     iter. #   728  RMS(g-h-1)= 1.354E-05  nbox= 16
     iter. #   729  RMS(g-h-1)= 1.339E-05  nbox= 17
     iter. #   730  RMS(g-h-1)= 1.336E-05  nbox=  2
     iter. #   731  RMS(g-h-1)= 1.318E-05  nbox=  3
     iter. #   732  RMS(g-h-1)= 1.305E-05  nbox=  4
     iter. #   733  RMS(g-h-1)= 1.292E-05  nbox=  5
     iter. #   734  RMS(g-h-1)= 1.281E-05  nbox=  6
     iter. #   735  RMS(g-h-1)= 1.275E-05  nbox=  7
     iter. #   736  RMS(g-h-1)= 1.263E-05  nbox=  8
     iter. #   737  RMS(g-h-1)= 1.252E-05  nbox=  9
     iter. #   738  RMS(g-h-1)= 1.242E-05  nbox= 10
     iter. #   739  RMS(g-h-1)= 1.230E-05  nbox= 11
     iter. #   740  RMS(g-h-1)= 1.219E-05  nbox= 12
     iter. #   741  RMS(g-h-1)= 1.209E-05  nbox= 13
     iter. #   742  RMS(g-h-1)= 1.200E-05  nbox= 14
     iter. #   743  RMS(g-h-1)= 1.187E-05  nbox= 15
     iter. #   744  RMS(g-h-1)= 1.174E-05  nbox= 16
     iter. #   745  RMS(g-h-1)= 1.160E-05  nbox= 17
     iter. #   746  RMS(g-h-1)= 1.159E-05  nbox=  2
     iter. #   747  RMS(g-h-1)= 1.146E-05  nbox=  3
     iter. #   748  RMS(g-h-1)= 1.135E-05  nbox=  4
     iter. #   749  RMS(g-h-1)= 1.126E-05  nbox=  5
     iter. #   750  RMS(g-h-1)= 1.120E-05  nbox=  6
     iter. #   751  RMS(g-h-1)= 1.112E-05  nbox=  7
     iter. #   752  RMS(g-h-1)= 1.103E-05  nbox=  8
     iter. #   753  RMS(g-h-1)= 1.095E-05  nbox=  9
     iter. #   754  RMS(g-h-1)= 1.085E-05  nbox= 10
     iter. #   755  RMS(g-h-1)= 1.076E-05  nbox= 11
     iter. #   756  RMS(g-h-1)= 1.066E-05  nbox= 12
     iter. #   757  RMS(g-h-1)= 1.058E-05  nbox= 13
     iter. #   758  RMS(g-h-1)= 1.052E-05  nbox= 14
     iter. #   759  RMS(g-h-1)= 1.045E-05  nbox= 15
     iter. #   760  RMS(g-h-1)= 1.037E-05  nbox= 16
     iter. #   761  RMS(g-h-1)= 1.028E-05  nbox= 17
     iter. #   762  RMS(g-h-1)= 1.027E-05  nbox=  2
     iter. #   763  RMS(g-h-1)= 1.018E-05  nbox=  3
     iter. #   764  RMS(g-h-1)= 1.009E-05  nbox=  4
     iter. #   765  RMS(g-h-1)= 1.001E-05  nbox=  5
     iter. #   766  RMS(g-h-1)= 9.934E-06  nbox=  6
     iter. #   767  RMS(g-h-1)= 9.905E-06  nbox=  7
     iter. #   768  RMS(g-h-1)= 9.812E-06  nbox=  8
     iter. #   769  RMS(g-h-1)= 9.743E-06  nbox=  9
     iter. #   770  RMS(g-h-1)= 9.660E-06  nbox= 10
     iter. #   771  RMS(g-h-1)= 9.576E-06  nbox= 11
     iter. #   772  RMS(g-h-1)= 9.509E-06  nbox= 12
     iter. #   773  RMS(g-h-1)= 9.418E-06  nbox= 13
     iter. #   774  RMS(g-h-1)= 9.355E-06  nbox= 14
     iter. #   775  RMS(g-h-1)= 9.308E-06  nbox= 15
     iter. #   776  RMS(g-h-1)= 9.237E-06  nbox= 16
     iter. #   777  RMS(g-h-1)= 9.157E-06  nbox= 17
     iter. #   778  RMS(g-h-1)= 9.141E-06  nbox=  2
     iter. #   779  RMS(g-h-1)= 9.046E-06  nbox=  3
     iter. #   780  RMS(g-h-1)= 8.964E-06  nbox=  4
     iter. #   781  RMS(g-h-1)= 8.875E-06  nbox=  5
     iter. #   782  RMS(g-h-1)= 8.807E-06  nbox=  6
     iter. #   783  RMS(g-h-1)= 8.776E-06  nbox=  7
     iter. #   784  RMS(g-h-1)= 8.704E-06  nbox=  8
     iter. #   785  RMS(g-h-1)= 8.642E-06  nbox=  9
     iter. #   786  RMS(g-h-1)= 8.579E-06  nbox= 10
     iter. #   787  RMS(g-h-1)= 8.518E-06  nbox= 11
     iter. #   788  RMS(g-h-1)= 8.459E-06  nbox= 12
     iter. #   789  RMS(g-h-1)= 8.394E-06  nbox= 13
     iter. #   790  RMS(g-h-1)= 8.351E-06  nbox= 14
     iter. #   791  RMS(g-h-1)= 8.315E-06  nbox= 15
     iter. #   792  RMS(g-h-1)= 8.257E-06  nbox= 16
     iter. #   793  RMS(g-h-1)= 8.199E-06  nbox= 17
     iter. #   794  RMS(g-h-1)= 8.200E-06  nbox=  2
     iter. #   795  RMS(g-h-1)= 8.133E-06  nbox=  3
     iter. #   796  RMS(g-h-1)= 8.084E-06  nbox=  4
     iter. #   797  RMS(g-h-1)= 8.041E-06  nbox=  5
     iter. #   798  RMS(g-h-1)= 7.987E-06  nbox=  6
     iter. #   799  RMS(g-h-1)= 7.986E-06  nbox=  7
     iter. #   800  RMS(g-h-1)= 7.930E-06  nbox=  8
     iter. #   801  RMS(g-h-1)= 7.886E-06  nbox=  9
     iter. #   802  RMS(g-h-1)= 7.838E-06  nbox= 10
     iter. #   803  RMS(g-h-1)= 7.854E-06  nbox= 11
     iter. #   804  RMS(g-h-1)= 7.728E-06  nbox= 12
     iter. #   805  RMS(g-h-1)= 7.735E-06  nbox= 13
     iter. #   806  RMS(g-h-1)= 7.660E-06  nbox= 14
     iter. #   807  RMS(g-h-1)= 7.607E-06  nbox= 15
     iter. #   808  RMS(g-h-1)= 7.551E-06  nbox= 16
     iter. #   809  RMS(g-h-1)= 7.497E-06  nbox= 17
     iter. #   810  RMS(g-h-1)= 7.480E-06  nbox=  2
     iter. #   811  RMS(g-h-1)= 7.424E-06  nbox=  3
     iter. #   812  RMS(g-h-1)= 7.377E-06  nbox=  4
     iter. #   813  RMS(g-h-1)= 7.327E-06  nbox=  5
     iter. #   814  RMS(g-h-1)= 7.276E-06  nbox=  6
     iter. #   815  RMS(g-h-1)= 7.256E-06  nbox=  7
     iter. #   816  RMS(g-h-1)= 7.196E-06  nbox=  8
     iter. #   817  RMS(g-h-1)= 7.144E-06  nbox=  9
     iter. #   818  RMS(g-h-1)= 7.087E-06  nbox= 10
     iter. #   819  RMS(g-h-1)= 7.046E-06  nbox= 11
     iter. #   820  RMS(g-h-1)= 6.996E-06  nbox= 12
     iter. #   821  RMS(g-h-1)= 6.952E-06  nbox= 13
     iter. #   822  RMS(g-h-1)= 6.926E-06  nbox= 14
     iter. #   823  RMS(g-h-1)= 6.883E-06  nbox= 15
     iter. #   824  RMS(g-h-1)= 6.831E-06  nbox= 16
     iter. #   825  RMS(g-h-1)= 6.781E-06  nbox= 17
     iter. #   826  RMS(g-h-1)= 6.770E-06  nbox=  2
     iter. #   827  RMS(g-h-1)= 6.719E-06  nbox=  3
     iter. #   828  RMS(g-h-1)= 6.669E-06  nbox=  4
     iter. #   829  RMS(g-h-1)= 6.623E-06  nbox=  5
     iter. #   830  RMS(g-h-1)= 6.582E-06  nbox=  6
     iter. #   831  RMS(g-h-1)= 6.560E-06  nbox=  7
     iter. #   832  RMS(g-h-1)= 6.516E-06  nbox=  8
     iter. #   833  RMS(g-h-1)= 6.477E-06  nbox=  9
     iter. #   834  RMS(g-h-1)= 6.437E-06  nbox= 10
     iter. #   835  RMS(g-h-1)= 6.401E-06  nbox= 11
     iter. #   836  RMS(g-h-1)= 6.365E-06  nbox= 12
     iter. #   837  RMS(g-h-1)= 6.332E-06  nbox= 13
     iter. #   838  RMS(g-h-1)= 6.299E-06  nbox= 14

     End of Laue-RISM calculation


     convergence has been achieved in   838 iterations


     solvent charge    0.00323, renormalised to    0.00000

     Total number of solvent (in expand-cell)
     H2O           97.476754
     K+             1.612674
     OH-            1.611520

     Total charge of solvent (in expand-cell)
     H2O            0.000170 e
     K+             1.612674 e
     OH-           -1.609614 e
     Total          0.003230 e

     Chemical potential of solvation (in expand-cell)
     H2O        GaussFluct   0.139416E+01 kcal/mol
     K+         GaussFluct   0.187207E+01 kcal/mol
     OH-        GaussFluct  -0.125403E+01 kcal/mol
     Total      GaussFluct   0.201220E+01 kcal/mol

     Starting wfc are  332 randomized atomic wfcs
     Checking if some PAW data can be deallocated... 
       node    0, deallocated PAW data for type:  2
       node    0, deallocated PAW data for type:  3
       node    1, deallocated PAW data for type:  2
       node    1, deallocated PAW data for type:  3
       node    2, deallocated PAW data for type:  2
       node    2, deallocated PAW data for type:  3
       node    3, deallocated PAW data for type:  2
       node    3, deallocated PAW data for type:  3
       node    4, deallocated PAW data for type:  2
       node    4, deallocated PAW data for type:  3
       node    5, deallocated PAW data for type:  2
       node    5, deallocated PAW data for type:  3
       node    6, deallocated PAW data for type:  2
       node    6, deallocated PAW data for type:  3
       node    7, deallocated PAW data for type:  2
       node    7, deallocated PAW data for type:  3
       node    8, deallocated PAW data for type:  2
       node    8, deallocated PAW data for type:  3
       node    9, deallocated PAW data for type:  2
       node    9, deallocated PAW data for type:  3
       node   10, deallocated PAW data for type:  2
       node   10, deallocated PAW data for type:  3
       node   11, deallocated PAW data for type:  2
       node   11, deallocated PAW data for type:  3
       node   12, deallocated PAW data for type:  2
       node   12, deallocated PAW data for type:  3
       node   13, deallocated PAW data for type:  2
       node   13, deallocated PAW data for type:  3
       node   14, deallocated PAW data for type:  2
       node   14, deallocated PAW data for type:  3
       node   15, deallocated PAW data for type:  2
       node   15, deallocated PAW data for type:  3
       node   16, deallocated PAW data for type:  2
       node   16, deallocated PAW data for type:  3
       node   17, deallocated PAW data for type:  2
       node   17, deallocated PAW data for type:  3
       node   18, deallocated PAW data for type:  2
       node   18, deallocated PAW data for type:  3
       node   19, deallocated PAW data for type:  2
       node   19, deallocated PAW data for type:  3
       node   20, deallocated PAW data for type:  2
       node   20, deallocated PAW data for type:  3
       node   21, deallocated PAW data for type:  2
       node   21, deallocated PAW data for type:  3
       node   22, deallocated PAW data for type:  2
       node   22, deallocated PAW data for type:  3
       node   23, deallocated PAW data for type:  2
       node   23, deallocated PAW data for type:  3
       node   24, deallocated PAW data for type:  2
       node   24, deallocated PAW data for type:  3
       node   25, deallocated PAW data for type:  2
       node   25, deallocated PAW data for type:  3
       node   26, deallocated PAW data for type:  2
       node   26, deallocated PAW data for type:  3
       node   27, deallocated PAW data for type:  2
       node   27, deallocated PAW data for type:  3
[...]
     atom   19 type  1   force =    -0.00144774   -0.04942533   61.63595711
     atom   20 type  1   force =    -0.20964989   -0.12193183   65.56207802
     atom   21 type  1   force =     0.21120164   -0.12112437   65.56584726
     atom   22 type  1   force =     0.01482057   -0.00834611   62.69699749
     atom   23 type  1   force =     0.00147876    0.24299855   65.56395899
     atom   24 type  1   force =    -0.01619745   -0.00952917   62.69932184
     atom   25 type  1   force =     0.04260495    0.02545184   61.63611266
     atom   26 type  1   force =    -0.04294062    0.02397097   61.63576206
     atom   27 type  1   force =     0.00033871    0.01792789   62.69816062
     atom   28 type  1   force =    -0.00313118   -0.00002869  203.68840932
     atom   29 type  1   force =    -0.59506870   -0.75913998  202.92829499
     atom   30 type  1   force =     0.59741459   -0.74797563  202.93614683
     atom   31 type  1   force =    -0.95924728   -0.13960284  202.92424232
     atom   32 type  1   force =     0.03356107   -0.00000379  203.56282304
     atom   33 type  1   force =     0.94219951   -0.13963723  202.94008975
     atom   34 type  1   force =    -0.35329477    0.89877607  202.92822369
     atom   35 type  1   force =     0.35558132    0.88757769  202.93620441
     atom   36 type  1   force =    -0.00313223    0.00004288  204.43256253
     atom   37 type  2   force =    -0.10194172    0.00001415   93.27925749
     atom   38 type  3   force =     0.08684152   -0.00002409  164.32228847
     The local contribution  to forces
     atom    1 type  1   force =     0.00004568   -0.00003334  217.60713273
     atom    2 type  1   force =     0.02314220   -0.02523317  217.76108870
     atom    3 type  1   force =    -0.02319096   -0.02507999  217.76105946
     atom    4 type  1   force =    -0.01026442    0.03257972  217.76106097
     atom    5 type  1   force =     0.00018224    0.00000119  217.72428732
     atom    6 type  1   force =     0.01008670    0.03267228  217.76112958
     atom    7 type  1   force =    -0.03329080   -0.00743164  217.76103712
     atom    8 type  1   force =     0.03339043   -0.00751305  217.76113674
     atom    9 type  1   force =    -0.00008739    0.00002798  217.84869507
     atom   10 type  1   force =     0.02257097    0.01307780   77.50441205
     atom   11 type  1   force =    -0.00014552   -0.16357763   77.20037369
     atom   12 type  1   force =    -0.02243043    0.01296033   77.50378113
     atom   13 type  1   force =    -0.14178958    0.08178524   77.20059542
     atom   14 type  1   force =     0.14158412    0.08183664   77.20016133
     atom   15 type  1   force =     0.00023382    0.09684236   77.81440968
     atom   16 type  1   force =    -0.00002973   -0.02601626   77.50405820
     atom   17 type  1   force =     0.08387831   -0.04832874   77.81429583
     atom   18 type  1   force =    -0.08384745   -0.04857886   77.81441053
     atom   19 type  1   force =     0.00135734    0.04466178  -61.66057211
     atom   20 type  1   force =     0.22299512    0.12971536  -65.56486247
     atom   21 type  1   force =    -0.22462462    0.12879448  -65.56889117
     atom   22 type  1   force =    -0.02263193    0.01283428  -62.72556766
     atom   23 type  1   force =    -0.00161590   -0.25845363  -65.56687369
     atom   24 type  1   force =     0.02421887    0.01418451  -62.72783675
     atom   25 type  1   force =    -0.03846955   -0.02301167  -61.66068115
     atom   26 type  1   force =     0.03882755   -0.02164806  -61.66041982
     atom   27 type  1   force =    -0.00037847   -0.02707013  -62.72670391
     atom   28 type  1   force =     0.00310821    0.00002934 -203.71946963
     atom   29 type  1   force =     0.57632149    0.72782505 -203.00949928
     atom   30 type  1   force =    -0.57884524    0.71783130 -203.01650300
     atom   31 type  1   force =     0.92219396    0.13882813 -203.00587406
     atom   32 type  1   force =    -0.03179199    0.00000418 -203.59087432
     atom   33 type  1   force =    -0.90735427    0.13882133 -203.02002497
     atom   34 type  1   force =     0.33590673   -0.86667518 -203.00942774
     atom   35 type  1   force =    -0.33840810   -0.85662908 -203.01656001
     atom   36 type  1   force =     0.00309181   -0.00004324 -204.46461528
     atom   37 type  2   force =     0.09588525   -0.00001214  -94.15962398
     atom   38 type  3   force =    -0.06173720    0.00001812 -161.56924842
     The core correction contribution to forces
     atom    1 type  1   force =    -0.00000377   -0.00000008    0.01936602
     atom    2 type  1   force =    -0.00022319    0.00003619    0.01940559
     atom    3 type  1   force =     0.00022597    0.00004857    0.01940600
     atom    4 type  1   force =    -0.00008179   -0.00021689    0.01940339
     atom    5 type  1   force =     0.00001087   -0.00000005    0.01895025
     atom    6 type  1   force =     0.00006940   -0.00021446    0.01940806
     atom    7 type  1   force =     0.00015291    0.00017741    0.01940358
     atom    8 type  1   force =    -0.00014501    0.00016928    0.01940785
     atom    9 type  1   force =    -0.00000964    0.00000016    0.01978432
     atom   10 type  1   force =     0.00024148    0.00013996    0.00009393
     atom   11 type  1   force =     0.00000898   -0.00063790   -0.00036626
     atom   12 type  1   force =    -0.00025007    0.00014399    0.00010869
     atom   13 type  1   force =    -0.00055283    0.00032439   -0.00036250
     atom   14 type  1   force =     0.00055198    0.00031356   -0.00036987
     atom   15 type  1   force =    -0.00000024    0.00028207    0.00066524
     atom   16 type  1   force =    -0.00000087   -0.00028385    0.00010139
     atom   17 type  1   force =     0.00024458   -0.00014132    0.00066322
     atom   18 type  1   force =    -0.00024412   -0.00014093    0.00066741
     atom   19 type  1   force =     0.00001288   -0.00034866   -0.00017897
     atom   20 type  1   force =     0.00156294    0.00090586    0.00094161
     atom   21 type  1   force =    -0.00158852    0.00091355    0.00099563
     atom   22 type  1   force =     0.00008984   -0.00005582    0.00048473
     atom   23 type  1   force =    -0.00000607   -0.00181933    0.00096882
     atom   24 type  1   force =    -0.00008040   -0.00004217    0.00047411
     atom   25 type  1   force =     0.00030706    0.00016980   -0.00017858
     atom   26 type  1   force =    -0.00029678    0.00017874   -0.00017937
     atom   27 type  1   force =    -0.00000721    0.00009825    0.00047939
     atom   28 type  1   force =     0.00000279    0.00000001   -0.01963604
     atom   29 type  1   force =    -0.00087998   -0.00171120   -0.02008083
     atom   30 type  1   force =     0.00087976   -0.00167991   -0.02007871
     atom   31 type  1   force =    -0.00192910    0.00008808   -0.02008732
     atom   32 type  1   force =    -0.00031796   -0.00000010    0.02503743
     atom   33 type  1   force =     0.00188768    0.00008334   -0.02007229
     atom   34 type  1   force =    -0.00102721    0.00161850   -0.02008633
     atom   35 type  1   force =     0.00102926    0.00160105   -0.02007329
     atom   36 type  1   force =     0.00000572   -0.00000008   -0.02027475
     atom   37 type  2   force =    -0.00011976   -0.00000002   -0.01714822
     atom   38 type  3   force =     0.00021304   -0.00000013    0.02244662
     The Hubbard contrib.    to forces
     atom    1 type  1   force =     0.00000000    0.00000000    0.00000000
     atom    2 type  1   force =     0.00000000    0.00000000    0.00000000
     atom    3 type  1   force =     0.00000000    0.00000000    0.00000000
     atom    4 type  1   force =     0.00000000    0.00000000    0.00000000
     atom    5 type  1   force =     0.00000000    0.00000000    0.00000000
     atom    6 type  1   force =     0.00000000    0.00000000    0.00000000
     atom    7 type  1   force =     0.00000000    0.00000000    0.00000000
     atom    8 type  1   force =     0.00000000    0.00000000    0.00000000
     atom    9 type  1   force =     0.00000000    0.00000000    0.00000000
     atom   10 type  1   force =     0.00000000    0.00000000    0.00000000
     atom   11 type  1   force =     0.00000000    0.00000000    0.00000000
     atom   12 type  1   force =     0.00000000    0.00000000    0.00000000
     atom   13 type  1   force =     0.00000000    0.00000000    0.00000000
     atom   14 type  1   force =     0.00000000    0.00000000    0.00000000
     atom   15 type  1   force =     0.00000000    0.00000000    0.00000000
     atom   16 type  1   force =     0.00000000    0.00000000    0.00000000
     atom   17 type  1   force =     0.00000000    0.00000000    0.00000000
     atom   18 type  1   force =     0.00000000    0.00000000    0.00000000
     atom   19 type  1   force =     0.00000000    0.00000000    0.00000000
     atom   20 type  1   force =     0.00000000    0.00000000    0.00000000
     atom   21 type  1   force =     0.00000000    0.00000000    0.00000000
     atom   22 type  1   force =     0.00000000    0.00000000    0.00000000
     atom   23 type  1   force =     0.00000000    0.00000000    0.00000000
     atom   24 type  1   force =     0.00000000    0.00000000    0.00000000
     atom   25 type  1   force =     0.00000000    0.00000000    0.00000000
     atom   26 type  1   force =     0.00000000    0.00000000    0.00000000
     atom   27 type  1   force =     0.00000000    0.00000000    0.00000000
     atom   28 type  1   force =     0.00000000    0.00000000    0.00000000
     atom   29 type  1   force =     0.00000000    0.00000000    0.00000000
     atom   30 type  1   force =     0.00000000    0.00000000    0.00000000
     atom   31 type  1   force =     0.00000000    0.00000000    0.00000000
     atom   32 type  1   force =     0.00000000    0.00000000    0.00000000
     atom   33 type  1   force =     0.00000000    0.00000000    0.00000000
     atom   34 type  1   force =     0.00000000    0.00000000    0.00000000
     atom   35 type  1   force =     0.00000000    0.00000000    0.00000000
     atom   36 type  1   force =     0.00000000    0.00000000    0.00000000
     atom   37 type  2   force =     0.00000000    0.00000000    0.00000000
     atom   38 type  3   force =     0.00000000    0.00000000    0.00000000
     The SCF correction term to forces
     atom    1 type  1   force =     0.00000000    0.00000000    0.00000000
     atom    2 type  1   force =     0.00000000    0.00000000    0.00000000
     atom    3 type  1   force =     0.00000000    0.00000000    0.00000000
     atom    4 type  1   force =     0.00000000    0.00000000    0.00000000
     atom    5 type  1   force =     0.00000000    0.00000000    0.00000000
     atom    6 type  1   force =     0.00000000    0.00000000    0.00000000
     atom    7 type  1   force =     0.00000000    0.00000000    0.00000000
     atom    8 type  1   force =     0.00000000    0.00000000    0.00000000
     atom    9 type  1   force =     0.00000000    0.00000000    0.00000000
     atom   10 type  1   force =     0.00000011    0.00000004   -0.00000355
     atom   11 type  1   force =    -0.00000003    0.00000017   -0.00000360
     atom   12 type  1   force =    -0.00000009    0.00000009   -0.00000359
     atom   13 type  1   force =     0.00000015   -0.00000003   -0.00000359
     atom   14 type  1   force =    -0.00000014    0.00000002   -0.00000359
     atom   15 type  1   force =    -0.00000002    0.00000005   -0.00000354
     atom   16 type  1   force =     0.00000006   -0.00000019   -0.00000355
     atom   17 type  1   force =    -0.00000005   -0.00000006   -0.00000356
     atom   18 type  1   force =    -0.00000001   -0.00000007   -0.00000356
     atom   19 type  1   force =     0.00000004    0.00000007   -0.00000503
     atom   20 type  1   force =     0.00000014    0.00000013   -0.00000500
     atom   21 type  1   force =    -0.00000017    0.00000020   -0.00000501
     atom   22 type  1   force =     0.00000003   -0.00000006   -0.00000503
     atom   23 type  1   force =     0.00000003   -0.00000016   -0.00000500
     atom   24 type  1   force =    -0.00000007    0.00000000   -0.00000504
     atom   25 type  1   force =     0.00000004   -0.00000008   -0.00000506
     atom   26 type  1   force =     0.00000003   -0.00000008   -0.00000506
     atom   27 type  1   force =    -0.00000008   -0.00000002   -0.00000505
     atom   28 type  1   force =     0.00000006   -0.00000001   -0.00000309
     atom   29 type  1   force =    -0.00000004    0.00000001   -0.00000328
     atom   30 type  1   force =     0.00000000    0.00000004   -0.00000324
     atom   31 type  1   force =     0.00000003    0.00000001   -0.00000330
     atom   32 type  1   force =     0.00000000    0.00000007   -0.00000327
     atom   33 type  1   force =    -0.00000001    0.00000006   -0.00000329
     atom   34 type  1   force =     0.00000007   -0.00000008   -0.00000328
     atom   35 type  1   force =    -0.00000002   -0.00000003   -0.00000330
     atom   36 type  1   force =    -0.00000005   -0.00000007   -0.00000319
     atom   37 type  2   force =     0.00000000    0.00000001   -0.00000052
     atom   38 type  3   force =     0.00000001    0.00000000   -0.00000141

     3D-RISM Solvation contribution to forces:
     atom    1 type  1   force =     0.00000033    0.00000000    0.00000695
     atom    2 type  1   force =     0.00001172    0.00002381    0.00003152
     atom    3 type  1   force =    -0.00001204    0.00002335    0.00003088
     atom    4 type  1   force =     0.00002664   -0.00000152    0.00003177
     atom    5 type  1   force =    -0.00000053    0.00000002    0.00008326
     atom    6 type  1   force =    -0.00002608   -0.00000145    0.00003071
     atom    7 type  1   force =     0.00001437   -0.00002234    0.00003145
     atom    8 type  1   force =    -0.00001459   -0.00002184    0.00003103
     atom    9 type  1   force =     0.00000022   -0.00000002    0.00000183
     atom   10 type  1   force =     0.00014279    0.00008267    0.00004286
     atom   11 type  1   force =    -0.00000325    0.00019980    0.00030750
     atom   12 type  1   force =    -0.00013951    0.00008040    0.00003619
     atom   13 type  1   force =     0.00017119   -0.00010069    0.00031114
     atom   14 type  1   force =    -0.00017480   -0.00009902    0.00030386
     atom   15 type  1   force =     0.00000363   -0.00005368   -0.00004946
     atom   16 type  1   force =    -0.00000032   -0.00016300    0.00003955
     atom   17 type  1   force =    -0.00004633    0.00002882   -0.00004986
     atom   18 type  1   force =     0.00004666    0.00002481   -0.00004903
     atom   19 type  1   force =     0.00002755    0.00027185   -0.00045473
     atom   20 type  1   force =     0.00100867    0.00059420    0.00205629
     atom   21 type  1   force =    -0.00103848    0.00058773    0.00200311
     atom   22 type  1   force =     0.00118285   -0.00068682   -0.00005175
     atom   23 type  1   force =    -0.00002051   -0.00118183    0.00202980
     atom   24 type  1   force =    -0.00116335   -0.00066766   -0.00009370
     atom   25 type  1   force =    -0.00023193   -0.00014980   -0.00046219
     atom   26 type  1   force =     0.00023888   -0.00012199   -0.00044724
     atom   27 type  1   force =    -0.00000685    0.00135461   -0.00007269
     atom   28 type  1   force =     0.00013231   -0.00000003   -0.01745140
     atom   29 type  1   force =     0.00522718    0.01034753    0.00352936
     atom   30 type  1   force =    -0.00535967    0.01020367    0.00327495
     atom   31 type  1   force =     0.01161804   -0.00056188    0.00363278
     atom   32 type  1   force =    -0.00017526    0.00000018    0.00843405
     atom   33 type  1   force =    -0.01147197   -0.00054626    0.00316979
     atom   34 type  1   force =     0.00620107   -0.00980238    0.00350654
     atom   35 type  1   force =    -0.00630534   -0.00964089    0.00329795
     atom   36 type  1   force =     0.00010563    0.00000010   -0.01938491
     atom   37 type  2   force =    -0.00030544    0.00000007   -0.02149112
     atom   38 type  3   force =    -0.00082979    0.00000022   -0.08226314

     Total force =     0.001518     Total SCF correction =     0.000021

     Total 3D-RISM Solvation Force =     0.094213

     Writing output data file Cu-vib.save
 
     init_run     :    376.10s CPU    191.26s WALL (       1 calls)
     electrons    :   7028.14s CPU   3586.98s WALL (       1 calls)
     forces       :     26.79s CPU     13.31s WALL (       1 calls)

     Called by init_run:
     wfcinit      :     57.99s CPU     30.44s WALL (       1 calls)
     wfcinit:atom :      0.02s CPU      0.02s WALL (      34 calls)
     wfcinit:wfcr :     57.66s CPU     30.10s WALL (      34 calls)
     potinit      :    309.52s CPU    156.15s WALL (       1 calls)

     Called by electrons:
     c_bands      :   4029.96s CPU   2070.79s WALL (      35 calls)
     sum_band     :    553.20s CPU    286.21s WALL (      35 calls)
     v_of_rho     :     45.06s CPU     22.86s WALL (      35 calls)
     v_h          :      0.71s CPU      0.55s WALL (      70 calls)
     v_xc         :     46.28s CPU     23.20s WALL (      36 calls)
     newd         :      2.73s CPU      1.27s WALL (      35 calls)
     PAW_pot      :      3.34s CPU      2.88s WALL (      35 calls)
     mix_rho      :      0.59s CPU      0.59s WALL (      35 calls)

     Called by c_bands:
     init_us_2    :      2.60s CPU      1.58s WALL (    2448 calls)
     crmmdiagg    :   2681.95s CPU   1316.22s WALL (    1190 calls)
     wfcrot       :   1336.94s CPU    740.25s WALL (    1156 calls)
     gsorth       :     65.18s CPU     41.80s WALL (    1190 calls)

     Called by sum_band:
     sum_band:bec :      2.31s CPU      1.29s WALL (    1190 calls)
     addusdens    :      2.28s CPU      1.26s WALL (      35 calls)

     Called by *rmmdiagg:
     h_psi        :   3636.95s CPU   1837.92s WALL (   10249 calls)
     s_psi        :     47.50s CPU     27.79s WALL (   10249 calls)
     cdiaghg      :    138.56s CPU     82.86s WALL (    1156 calls)
     cdiaghg:chol :      5.98s CPU      2.91s WALL (    1156 calls)
     cdiaghg:inve :      3.59s CPU      1.89s WALL (    1156 calls)
     cdiaghg:para :      1.82s CPU      1.82s WALL (    2312 calls)

     Called by h_psi:
     h_psi:pot    :   3632.25s CPU   1836.48s WALL (   10249 calls)
     h_psi:calbec :    130.49s CPU     69.70s WALL (   10249 calls)
     vloc_psi     :   3454.35s CPU   1738.03s WALL (   10249 calls)
     add_vuspsi   :     47.19s CPU     28.57s WALL (   10249 calls)

     General routines
     calbec       :    169.76s CPU     89.53s WALL (   11575 calls)
     fft          :     32.23s CPU     16.44s WALL (    2477 calls)
     ffts         :      0.16s CPU      0.16s WALL (      70 calls)
     fftw         :   3877.98s CPU   1957.84s WALL ( 2026804 calls)
     fftc         :      1.84s CPU      0.16s WALL (      70 calls)
     interpolate  :      0.62s CPU      0.62s WALL (      70 calls)
 
     Parallel routines
     fft_scatter  :   2663.19s CPU   1455.83s WALL ( 2121760 calls)

     PAW routines
     PAW_pot      :      3.34s CPU      2.88s WALL (      35 calls)

     RISM routines
     1DRISM_pre   :     27.60s CPU     14.19s WALL (       1 calls)
     1DRISM_run   :      0.81s CPU      1.18s WALL (       1 calls)
     3DRISM_pre   :     10.65s CPU      6.30s WALL (       1 calls)
     3DRISM_run   :   2688.70s CPU   1349.64s WALL (      35 calls)
     3DRISM_for   :      6.01s CPU      2.89s WALL (       1 calls)
     3DRISM_vsol  :      0.22s CPU      0.22s WALL (      35 calls)
 
     PWSCF        :     2h 6m CPU        1h 5m WALL

 
   This run was terminated on:  23:26:45  10Feb2026            

=------------------------------------------------------------------------------=
   JOB DONE.
=------------------------------------------------------------------------------=
